(written by ASE)

252 atoms
2 atom types

0.0      16.752895060460489  xlo xhi
0.0      21.762651693085399  ylo yhi
0.0      59.307264082000003  zlo zhi
     12.564673365334844                       0                       0  xy xz yz

Masses

     1      95.949999975317411 # Mo
     2      32.059999991752747 # S

Atoms # atomic

     1   1      5.2352779084864443      8.8259672027213991      6.1366699999999996
     2   1      1.0470560592280556      1.5717470980516597      6.1366699999999996
     3   1       9.423506304281684      16.080179748101799      6.1366699999999996
     4   2      8.7240291866309843      14.207853911826749      10.713789999999999
     5   2      8.7240291866309843      14.207853911826749      13.867419999999999
     6   2      12.912659019387695      21.461832046529146      10.713789999999999
     7   2      12.912659019387695      21.461832046529146      13.867419999999999
     8   2      4.5366102112955415      6.9531649858010001      10.713789999999999
     9   2      4.5366102112955415      6.9531649858010001      13.867419999999999
    10   2      8.8251849913944955      14.352989275066198      4.5601599999999998
    11   2      8.8251849913944955      14.352989275066198      7.7137900000000004
    12   2      13.013413387189734      21.607201820446601      4.5601599999999998
    13   2      13.013413387189734      21.607201820446601      7.7137900000000004
    14   2      4.6369631421361053      7.0987691703964595      4.5601599999999998
    15   2      4.6369631421361053      7.0987691703964595      7.7137900000000004
    16   1      5.7321141666211481      8.3346190134475329                 12.2903
    17   1      9.9207337653740755      15.589540755730001                 12.2903
    18   1      1.5446990631081048      1.0808726822493679                 12.2903
    19   1      3.4403270628985774      3.6443806650359183      6.1366699999999996
    20   1      7.6285489121569663      10.898600769705657      6.1366699999999996
    21   1      11.816777307952206       18.15281331508606      6.1366699999999996
    22   2      8.1255271959297275      11.098935296081617      10.713789999999999
    23   2      8.1255271959297275      11.098935296081617      13.867419999999999
    24   2      12.314164587975778      18.352919977320866      10.713789999999999
    25   2      12.314164587975778      18.352919977320866      13.867419999999999
    26   2      3.9381223264204719      3.8442453573033823      10.713789999999999
    27   2      3.9381223264204719      3.8442453573033823      13.867419999999999
    28   2      7.0302341458066282      9.1714027373807188      4.5601599999999998
    29   2      7.0302341458066282      9.1714027373807188      7.7137900000000004
    30   2      2.8420122965482388      1.9171826327109798      4.5601599999999998
    31   2      2.8420122965482388      1.9171826327109798      7.7137900000000004
    32   2      11.218455995065018      16.425622842050458      4.5601599999999998
    33   2      11.218455995065018      16.425622842050458      7.7137900000000004
    34   1       9.322245880499004      12.480621127232382                 12.2903
    35   1      13.510883272545053      19.734605808471631                 12.2903
    36   1      5.1348344644528972      5.2259387477434824                 12.2903
    37   1       5.833598066569099      5.7170142320201771      6.1366699999999996
    38   1      10.021819915827489      12.971234336689916      6.1366699999999996
    39   1      14.210048311622728      20.225446882070319      6.1366699999999996
    40   2      7.5270393110546596      7.9900156675840002      10.713789999999999
    41   2      7.5270393110546596      7.9900156675840002      13.867419999999999
    42   2      11.715676703100709      15.244000348823247      10.713789999999999
    43   2      11.715676703100709      15.244000348823247      13.867419999999999
    44   2      3.3396278950085514     0.73533328809510035      10.713789999999999
    45   2      3.3396278950085514     0.73533328809510035      13.867419999999999
    46   2      9.4235051494771511      11.244036304364979      4.5601599999999998
    47   2      9.4235051494771511      11.244036304364979      7.7137900000000004
    48   2        5.23528330021876      3.9898161996952388      4.5601599999999998
    49   2        5.23528330021876      3.9898161996952388      7.7137900000000004
    50   2       13.61172699873554      18.498256409034717      4.5601599999999998
    51   2       13.61172699873554      18.498256409034717      7.7137900000000004
    52   1      8.7237514490870858       9.371709058024102                 12.2903
    53   1      12.912381281843798      16.625687192726499                 12.2903
    54   1      4.5363465795778284      2.1170191192458652                 12.2903
    55   1      4.0386472209812325     0.53542769433469728      6.1366699999999996
    56   1      8.2268690702396228      7.7896477990044364      6.1366699999999996
    57   1      12.415090919498011      15.043867903674174      6.1366699999999996
    58   2      6.9285448796427378      4.8811035983757174      10.713789999999999
    59   2      6.9285448796427378      4.8811035983757174      13.867419999999999
    60   2      11.117182271688787      12.135088279614966      10.713789999999999
    61   2      11.117182271688787      12.135088279614966      13.867419999999999
    62   2      15.305812104445499      19.389066414317362      10.713789999999999
    63   2      15.305812104445499      19.389066414317362      13.867419999999999
    64   2      11.816776153147671      13.316669871349236      4.5601599999999998
    65   2      11.816776153147671      13.316669871349236      7.7137900000000004
    66   2       7.628554303889282      6.0624497666794976      4.5601599999999998
    67   2       7.628554303889282      6.0624497666794976      7.7137900000000004
    68   2      16.004998002406058      20.570889976018975      4.5601599999999998
    69   2      16.004998002406058      20.570889976018975      7.7137900000000004
    70   1      8.1252635642120143      6.2627894295264825                 12.2903
    71   1      12.313893396968727      13.516767564228878                 12.2903
    72   1      16.502524242477925      20.770759804757461                 12.2903
    73   1      10.620140073910145      9.8622813659886948      6.1366699999999996
    74   1      14.808361923168533      17.116501470658434      6.1366699999999996
    75   1      6.4319182246517537       2.608061261318956      6.1366699999999996
    76   2      10.518686827524382      9.0261621045804983      10.713789999999999
    77   2      10.518686827524382      9.0261621045804983      13.867419999999999
    78   2      14.707317673033579      16.280154345109079      10.713789999999999
    79   2      14.707317673033579      16.280154345109079      13.867419999999999
    80   2      6.3312754114782752      1.7714797250915977      10.713789999999999
    81   2      6.3312754114782752      1.7714797250915977      13.867419999999999
    82   2      10.021825307559805      8.1350833336637578      4.5601599999999998
    83   2      10.021825307559805      8.1350833336637578      7.7137900000000004
    84   2      14.210047156818193      15.389303438333496      4.5601599999999998
    85   2      14.210047156818193      15.389303438333496      7.7137900000000004
    86   2      5.8335969117645643      0.8808707882833533      4.5601599999999998
    87   2      5.8335969117645643      0.8808707882833533      7.7137900000000004
    88   1      7.5267691328000952      3.1538773603182011                 12.2903
    89   1      11.715398965556806      10.407855495020598                 12.2903
    90   1      15.904036357602857      17.661840176259844                 12.2903
    91   1      8.8251892283222766      4.6806948283032153      6.1366699999999996
    92   1      17.201632926839054      19.189135037642693      6.1366699999999996
    93   1      13.013411077580665      11.934914932972951      6.1366699999999996
    94   2      9.9201923961124621      5.9172500353722155      10.713789999999999
    95   2      9.9201923961124621      5.9172500353722155      13.867419999999999
    96   2      14.108829788158511      13.171234716611464      10.713789999999999
    97   2      14.108829788158511      13.171234716611464      13.867419999999999
    98   2      18.297459620915223      20.425212851313859      10.713789999999999
    99   2      18.297459620915223      20.425212851313859      13.867419999999999
   100   2      8.2268679154350863      2.9535043552676119      4.5601599999999998
   101   2      8.2268679154350863      2.9535043552676119      7.7137900000000004
   102   2      12.415096311230327      10.207716900648016      4.5601599999999998
   103   2      12.415096311230327      10.207716900648016      7.7137900000000004
   104   2      16.603318160488715      17.461937005317754      4.5601599999999998
   105   2      16.603318160488715      17.461937005317754      7.7137900000000004
   106   1      11.116911080681739      7.2989358665229789                 12.2903
   107   1        15.3055343669016      14.552921560514712                 12.2903
   108   1      6.9294996646356308    0.044253487034079927                 12.2903
   109   1      19.594903930509577      21.261768604626951      6.1366699999999996
   110   1      15.406682081251187      14.007548499957212      6.1366699999999996
   111   1      11.218460231992799      6.7533283952874745      6.1366699999999996
   112   2      13.510335356746591       10.06232264740318      10.713789999999999
   113   2      13.510335356746591       10.06232264740318      13.867419999999999
   114   2      17.698965189503301      17.316300782105579      10.713789999999999
   115   2      17.698965189503301      17.316300782105579      13.867419999999999
   116   2      9.3229229279479995      2.8076261620880949      10.713789999999999
   117   2      9.3229229279479995      2.8076261620880949      13.867419999999999
   118   2      10.620138919105608      5.0261379222518716      4.5601599999999998
   119   2      10.620138919105608      5.0261379222518716      7.7137900000000004
   120   2      14.808367314900849      12.280350467632275      4.5601599999999998
   121   2      14.808367314900849      12.280350467632275      7.7137900000000004
   122   2      18.996589164159239      19.534570572302012      4.5601599999999998
   123   2      18.996589164159239      19.534570572302012      7.7137900000000004
   124   1      10.518416649269819      4.1900237973146979                 12.2903
   125   1      14.707046482026531      11.444001932017093                 12.2903
   126   1      18.895683874072578       18.69798661325634                 12.2903
   127   1      13.611731235663321      8.8259619622717338      6.1366699999999996
   128   1        9.42350283986808      1.5717494168913297      6.1366699999999996
   129   1      17.799953084921707      16.080182066941472      6.1366699999999996
   130   2      12.911839912582185      6.9533964723687127      10.713789999999999
   131   2      12.911839912582185      6.9533964723687127      13.867419999999999
   132   2      17.100477304628235       14.20738115360796      10.713789999999999
   133   2      17.100477304628235       14.20738115360796      13.867419999999999
   134   2      21.289100590848097      21.461366847599692      10.713789999999999
   135   2      21.289100590848097      21.461366847599692      13.867419999999999
   136   2       21.38986016782976      21.607204139286271      4.5601599999999998
   137   2       21.38986016782976      21.607204139286271      7.7137900000000004
   138   2      17.201638318571369      14.352984034616535      4.5601599999999998
   139   2      17.201638318571369      14.352984034616535      7.7137900000000004
   140   2       13.01340992277613      7.0987714892361309      4.5601599999999998
   141   2       13.01340992277613      7.0987714892361309      7.7137900000000004
   142   1      14.108552050614611       8.335089862808811                 12.2903
   143   1      18.297181883371326      15.589067997511208                 12.2903
   144   1      9.9211471811053542      1.0803999240305777                 12.2903
   145   1      11.816773843538602      3.6443829838755888      6.1366699999999996
   146   1      20.193224088592231       18.15281563392573      6.1366699999999996
   147   1      16.005002239333841      10.898595529255992      6.1366699999999996
   148   2      16.501982873216313      11.098469084399676      10.713789999999999
   149   2      16.501982873216313      11.098469084399676      13.867419999999999
   150   2      20.690612705973027      18.352447219102075      10.713789999999999
   151   2      20.690612705973027      18.352447219102075      13.867419999999999
   152   2      12.314570444417722      3.8437725990845908      10.713789999999999
   153   2      12.314570444417722      3.8437725990845908      13.867419999999999
   154   2      11.218459077188262      1.9171849515506507      4.5601599999999998
   155   2      11.218459077188262      1.9171849515506507      7.7137900000000004
   156   2      15.406680926446651      9.1714050562203866      4.5601599999999998
   157   2      15.406680926446651      9.1714050562203866      7.7137900000000004
   158   2       19.59490932224189      16.425617601600791      4.5601599999999998
   159   2       19.59490932224189      16.425617601600791      7.7137900000000004
   160   1      13.510064165739541      5.2261702343111942                 12.2903
   161   1      17.698693998496257      12.480148369013593                 12.2903
   162   1      21.887324844005452      19.734140609542173                 12.2903
   163   1      22.586495092262751      20.225449200909988      6.1366699999999996
   164   1      14.210044847209124      5.7170165508598485      6.1366699999999996
   165   1      18.398273243004365      12.971229096240252      6.1366699999999996
   166   2      15.903487429051907      7.9895429093652091      10.713789999999999
   167   2      15.903487429051907      7.9895429093652091      13.867419999999999
   168   2      20.092118274561102      15.243535149893791      10.713789999999999
   169   2      20.092118274561102      15.243535149893791      13.867419999999999
   170   2      11.716076013005802     0.73486052987631001      10.713789999999999
   171   2      11.716076013005802     0.73486052987631001      13.867419999999999
   172   2      17.799951930117174      11.244038623204647      4.5601599999999998
   173   2      17.799951930117174      11.244038623204647      7.7137900000000004
   174   2      13.611730080858784      3.9898185185349102      4.5601599999999998
   175   2      13.611730080858784      3.9898185185349102      7.7137900000000004
   176   2      21.988180325912413       18.49825116858505      4.5601599999999998
   177   2      21.988180325912413       18.49825116858505      7.7137900000000004
   178   1      17.100199567084335      9.3712362998053109                 12.2903
   179   1      21.288836959130382      16.625220981044556                 12.2903
   180   1      12.912788151038226      2.1165539203164103                 12.2903
   181   1      16.603315850879646      7.7896501178441051      6.1366699999999996
   182   1      20.791544246674885      15.043862663224509      6.1366699999999996
   183   1      12.415094001621256     0.53543001317436834      6.1366699999999996
   184   2      19.493630389686039      12.134615521396176      10.713789999999999
   185   2      19.493630389686039      12.134615521396176      13.867419999999999
   186   2       23.68226022244275      19.388593656098571      10.713789999999999
   187   2       23.68226022244275      19.388593656098571      13.867419999999999
   188   2      15.306215286172993       4.880869190198009      10.713789999999999
   189   2      15.306215286172993       4.880869190198009      13.867419999999999
   190   2      16.005001084529308      6.0624520855191681      4.5601599999999998
   191   2      16.005001084529308      6.0624520855191681      7.7137900000000004
   192   2      24.381451329582934      20.570884735569308      4.5601599999999998
   193   2      24.381451329582934      20.570884735569308      7.7137900000000004
   194   2      20.193222933787695      13.316672190188905      4.5601599999999998
   195   2      20.193222933787695      13.316672190188905      7.7137900000000004
   196   1      16.501711682209265      6.2623166713076923                 12.2903
   197   1      20.690334968429131      13.516302365299424                 12.2903
   198   1      24.878972360475178      20.770287046538673                 12.2903
   199   1      18.996586854550166      9.8622836848283644      6.1366699999999996
   200   1      14.808365005291778      2.6080635801586278      6.1366699999999996
   201   1      23.184815250345409      17.116496230208767      6.1366699999999996
   202   2      18.895135958274118      9.0257034521878943      10.713789999999999
   203   2      18.895135958274118      9.0257034521878943      13.867419999999999
   204   2      23.083765791030832      16.279681586890291      10.713789999999999
   205   2      23.083765791030832      16.279681586890291      13.867419999999999
   206   2      14.707727401297925      1.7719495617003929      10.713789999999999
   207   2      14.707727401297925      1.7719495617003929      13.867419999999999
   208   2      14.210043692404589     0.88087310712302402      4.5601599999999998
   209   2      14.210043692404589     0.88087310712302402      7.7137900000000004
   210   2      18.398272088199828      8.1350856525034274      4.5601599999999998
   211   2      18.398272088199828      8.1350856525034274      7.7137900000000004
   212   2      22.586493937458219      15.389305757173164      4.5601599999999998
   213   2      22.586493937458219      15.389305757173164      7.7137900000000004
   214   1      20.091847083554057      10.407382736801807                 12.2903
   215   1      24.280484475600108      17.661367418041053                 12.2903
   216   1      15.904431980041016      3.1536364056036419                 12.2903
   217   1        17.2016360089623      4.6806971471428858      6.1366699999999996
   218   1       21.38985785822069      11.934917251812623      6.1366699999999996
   219   1      25.578086254015929      19.189129797193026      6.1366699999999996
   220   2      22.485277906155758      13.170761958392671      10.713789999999999
   221   2      22.485277906155758      13.170761958392671      13.867419999999999
   222   2      26.673905064198024      20.425690247211993      10.713789999999999
   223   2      26.673905064198024      20.425690247211993      13.867419999999999
   224   2      18.297862802642719      5.9170156271945071      10.713789999999999
   225   2      18.297862802642719      5.9170156271945071      13.867419999999999
   226   2      20.791543091870352      10.207719219487688      4.5601599999999998
   227   2      20.791543091870352      10.207719219487688      7.7137900000000004
   228   2       16.60331469607511      2.9535066741072833      4.5601599999999998
   229   2       16.60331469607511      2.9535066741072833      7.7137900000000004
   230   2      24.979764941128739      17.461939324157424      4.5601599999999998
   231   2      24.979764941128739      17.461939324157424      7.7137900000000004
   232   1      19.493352652142136      7.2984706675935236                 12.2903
   233   1      23.681990044188186      14.552455348832771                 12.2903
   234   1      15.305944095165945     0.04471677710602396                 12.2903
   235   1      23.783128861891214      14.007550818796881      6.1366699999999996
   236   1      27.971357257686453      21.261763364177288      6.1366699999999996
   237   1      19.594907012632824      6.7533307141271441      6.1366699999999996
   238   2       21.88678347474384      10.061849889184389      10.713789999999999
   239   2       21.88678347474384      10.061849889184389      13.867419999999999
   240   2      26.075409620033618      17.316764072177524      10.713789999999999
   241   2      26.075409620033618      17.316764072177524      13.867419999999999
   242   2      17.699374917767646      2.8080959986968903      10.713789999999999
   243   2      17.699374917767646      2.8080959986968903      13.867419999999999
   244   2      23.184814095540872      12.280352786471944      4.5601599999999998
   245   2      23.184814095540872      12.280352786471944      7.7137900000000004
   246   2       18.99658569974563      5.0261402410915395      4.5601599999999998
   247   2       18.99658569974563      5.0261402410915395      7.7137900000000004
   248   2      27.373035944799259      19.534572891141682      4.5601599999999998
   249   2      27.373035944799259      19.534572891141682      7.7137900000000004
   250   1       23.08349460002378      11.443529173798307                 12.2903
   251   1      27.272121758066046      18.698457462617622                 12.2903
   252   1      18.896087055800074      4.1897893891369877                 12.2903
