(written by ASE)

231 atoms
3 atom types

0.0      12.373047943524554  xlo xhi
0.0      12.373047943524554  ylo yhi
0.0      61.803577947500003  zlo zhi

Masses

     1      15.998999995884349 # O
     2      87.619999977460253 # Sr
     3      47.866999987686484 # Ti

Atoms # atomic

     1   3      3.0932672747905245 -3.1622776603020139e-06      2.9345300000000001
     2   1      3.0932672747905245 -3.1622776603020139e-06     0.97818000000000005
     3   1      3.0932672747905245 -3.1622776603020139e-06      4.8908800000000001
     4   3      6.8051804150727699      1.2373012178164211      2.9345300000000001
     5   1      4.9492238449316472     0.61864902776938047      2.9345300000000001
     6   1      6.8051804150727699      1.2373012178164211     0.97818000000000005
     7   1      6.8051804150727699      1.2373012178164211      4.8908800000000001
     8   2      9.2797891752609338 -3.1622776605742503e-06     0.97818000000000005
     9   2      9.2797891752609338 -3.1622776605742503e-06      4.8908800000000001
    10   3      10.517093555355016      2.4746055979105033      2.9345300000000001
    11   1      8.6611369852138935      1.8559534078634621      2.9345300000000001
    12   1      10.517093555355016      2.4746055979105033     0.97818000000000005
    13   1      11.135745745402057     0.61864902776938036      2.9345300000000001
    14   1      10.517093555355016      2.4746055979105033      4.8908800000000001
    15   1      12.373050125496137      3.0932577879575436      2.9345300000000001
    16   2     0.61865535232470104      1.2373107046494021     0.97818000000000005
    17   2     0.61865535232470104      1.2373107046494021      4.8908800000000001
    18   3      1.8559597324187829      3.7119194648375657      2.9345300000000001
    19   1  3.1622776602803328e-06       3.093267274790525      2.9345300000000001
    20   1      1.8559597324187829      3.7119194648375657     0.97818000000000005
    21   1      2.4746119224658236      1.8559628946964428      2.9345300000000001
    22   1      1.8559597324187829      3.7119194648375657      4.8908800000000001
    23   2      4.3305684926069468      2.4746150847434838     0.97818000000000005
    24   2      4.3305684926069468      2.4746150847434838      4.8908800000000001
    25   3      5.5678728727010274      4.9492238449316472      2.9345300000000001
    26   1      3.7119163025599056       4.330571654884606      2.9345300000000001
    27   1      5.5678728727010274      4.9492238449316472     0.97818000000000005
    28   1      6.1865250627480686      3.0932672747905245      2.9345300000000001
    29   1      5.5678728727010274      4.9492238449316472      4.8908800000000001
    30   2      8.0424816328891922      3.7119194648375653     0.97818000000000005
    31   2      8.0424816328891922      3.7119194648375653      4.8908800000000001
    32   3      9.2797860129832745      6.1865282250257287      2.9345300000000001
    33   1       7.423829442842151      5.5678760349786884      2.9345300000000001
    34   1      9.2797860129832745      6.1865282250257287     0.97818000000000005
    35   1      9.8984382030303149       4.330571654884606      2.9345300000000001
    36   1      9.2797860129832745      6.1865282250257287      4.8908800000000001
    37   2      11.754394773171436      4.9492238449316464     0.97818000000000005
    38   2      11.754394773171436      4.9492238449316464      4.8908800000000001
    39   1      11.135742583124395      6.8051804150727691      2.9345300000000001
    40   3     0.61865535232470126      7.4238326051198102      2.9345300000000001
    41   1     0.61865535232470126      7.4238326051198102     0.97818000000000005
    42   1      1.2373075423717421      5.5678760349786875      2.9345300000000001
    43   1     0.61865535232470126      7.4238326051198102      4.8908800000000001
    44   2      3.0932641125128648      6.1865282250257287     0.97818000000000005
    45   2      3.0932641125128648      6.1865282250257287      4.8908800000000001
    46   3      4.3305684926069459      8.6611369852138917      2.9345300000000001
    47   1      2.4746119224658241      8.0424847951668514      2.9345300000000001
    48   1      4.3305684926069459      8.6611369852138917     0.97818000000000005
    49   1      4.9492206826539871      6.8051804150727691      2.9345300000000001
    50   1      4.3305684926069459      8.6611369852138917      4.8908800000000001
    51   2      6.8051772527951098      7.4238326051198102     0.97818000000000005
    52   2      6.8051772527951098      7.4238326051198102      4.8908800000000001
    53   3      8.0424816328891922      9.8984413653079741      2.9345300000000001
    54   1      6.1865250627480695      9.2797891752609338      2.9345300000000001
    55   1      8.0424816328891922      9.8984413653079741     0.97818000000000005
    56   1      8.6611338229362325      8.0424847951668514      2.9345300000000001
    57   1      8.0424816328891922      9.8984413653079741      4.8908800000000001
    58   2      10.517090393077355      8.6611369852138917     0.97818000000000005
    59   2      10.517090393077355      8.6611369852138917      4.8908800000000001
    60   3      11.754394773171438      11.135745745402055      2.9345300000000001
    61   1      9.8984382030303131      10.517093555355014      2.9345300000000001
    62   1      11.754394773171438      11.135745745402055     0.97818000000000005
    63   1      12.373046963218478      9.2797891752609321      2.9345300000000001
    64   1      11.754394773171438      11.135745745402055      4.8908800000000001
    65   1  3.1622776605583621e-06      9.2797891752609338      2.9345300000000001
    66   2      1.8559597324187831      9.8984413653079741     0.97818000000000005
    67   2      1.8559597324187831      9.8984413653079741      4.8908800000000001
    68   3      3.0932641125128644      12.373050125496139      2.9345300000000001
    69   1      1.2373075423717419      11.754397935449097      2.9345300000000001
    70   1      3.0932641125128644      12.373050125496139     0.97818000000000005
    71   1      3.7119163025599056      10.517093555355016      2.9345300000000001
    72   1      3.0932641125128644      12.373050125496139      4.8908800000000001
    73   2      5.5678728727010283      11.135745745402057     0.97818000000000005
    74   2      5.5678728727010283      11.135745745402057      4.8908800000000001
    75   1      7.4238294428421518      11.754397935449097      2.9345300000000001
    76   2      9.2797860129832728      12.373050125496137     0.97818000000000005
    77   2      9.2797860129832728      12.373050125496137      4.8908800000000001
    78   3  -0.0016190861620059692      9.2797860129832745                 10.8254
    79   1  -0.0016190861620059692      9.2797860129832745      8.8690499999999997
    80   1  -0.0016190861620059692      9.2797860129832745      12.781750000000001
    81   3        1.23633039857475      5.5680879075819201                 10.8254
    82   1     0.61735565620637245       7.423936960282596                 10.8254
    83   1        1.23633039857475      5.5680879075819201      8.8690499999999997
    84   1        1.23633039857475      5.5680879075819201      12.781750000000001
    85   2 -0.00054391175754878857      3.0932641125128644      8.8690499999999997
    86   2 -0.00054391175754878857      3.0932641125128644      12.781750000000001
    87   3      2.4742893701444864      1.8563929644582258                 10.8254
    88   1      1.8553051409431278      3.7122388548812424                 10.8254
    89   1      2.4742893701444864      1.8563929644582258      8.8690499999999997
    90   1     0.61843083061082904      1.2374150598121876                 10.8254
    91   1      2.4742893701444864      1.8563929644582258      12.781750000000001
    92   1      3.0932641125128644  0.00054391175754880028                 10.8254
    93   2      1.2352552241702932      11.754609808052328      8.8690499999999997
    94   2      1.2352552241702932      11.754609808052328      12.781750000000001
    95   3      3.7100790192393482      10.517735497720029                 10.8254
    96   1      3.0911042768709698      12.373584550420706                 10.8254
    97   1      3.7100790192393482      10.517735497720029      8.8690499999999997
    98   1      1.8542299665386708      9.8987607553516508                 10.8254
    99   1      3.7100790192393482      10.517735497720029      12.781750000000001
   100   2       2.473204708907049       8.042911702650974      8.8690499999999997
   101   2       2.473204708907049       8.042911702650974      12.781750000000001
   102   3      4.9480285039761043      6.8060373923186761                 10.8254
   103   1      4.3290537616077263       8.661886445019352                 10.8254
   104   1      4.9480285039761043      6.8060373923186761      8.8690499999999997
   105   1       3.092179451275427      6.1870626499502972                 10.8254
   106   1      4.9480285039761043      6.8060373923186761      12.781750000000001
   107   2      3.7111541936438051      4.3312135972496204      8.8690499999999997
   108   2      3.7111541936438051      4.3312135972496204      12.781750000000001
   109   3      6.1859874755458399      3.0943424491949818                 10.8254
   110   1      5.5670127331774628      4.9501915018956586                 10.8254
   111   1      6.1859874755458399      3.0943424491949818      8.8690499999999997
   112   1       4.330138422845164      2.4753677068266038                 10.8254
   113   1      6.1859874755458399      3.0943424491949818      12.781750000000001
   114   2      4.9491131652135412     0.61951865412592688      8.8690499999999997
   115   2      4.9491131652135412     0.61951865412592688      12.781750000000001
   116   1      6.8049622179142188       1.238493396494305                 10.8254
   117   3      7.4217739623630417      11.755694469289766                 10.8254
   118   1      7.4217739623630417      11.755694469289766      8.8690499999999997
   119   1      5.5659280719400241      11.136710240088407                 10.8254
   120   1      7.4217739623630417      11.755694469289766      12.781750000000001
   121   2      6.1849028143084022        9.28086118738773      8.8690499999999997
   122   2      6.1849028143084022        9.28086118738773      12.781750000000001
   123   3      8.6597266093774561      8.0439868770554313                 10.8254
   124   1      8.0407487047314188      9.8998454165890877                 10.8254
   125   1      8.6597266093774561      8.0439868770554313      8.8690499999999997
   126   1      6.8038775566767811      7.4250121346870532                 10.8254
   127   1      8.6597266093774561      8.0439868770554313      12.781750000000001
   128   2      7.4228617858781396      5.5691662442640366      8.8690499999999997
   129   2      7.4228617858781396      5.5691662442640366      12.781750000000001
   130   3      9.8976855809471935      4.3322919339317378                 10.8254
   131   1      9.2787108385788173      6.1881409866324146                 10.8254
   132   1      9.8976855809471935      4.3322919339317378      8.8690499999999997
   133   1      8.0418365282465167      3.7133171915633594                 10.8254
   134   1      9.8976855809471935      4.3322919339317378      12.781750000000001
   135   2      8.6608112706148965       1.857468138862683      8.8690499999999997
   136   2      8.6608112706148965       1.857468138862683      12.781750000000001
   137   3       11.13563506568395     0.62059382853038325                 10.8254
   138   1      10.516660323315572      2.4764428812310606                 10.8254
   139   1       11.13563506568395     0.62059382853038325      8.8690499999999997
   140   1      9.2797860129832728   0.0016190861620056388                 10.8254
   141   1       11.13563506568395     0.62059382853038325      12.781750000000001
   142   1      9.2776230150637193      12.374669211658142                 10.8254
   143   2      9.8965977574320974      10.518820158957466      8.8690499999999997
   144   2      9.8965977574320974      10.518820158957466      12.781750000000001
   145   3      12.371431039334132       9.281949010902828                 10.8254
   146   1      11.752446810132774      11.137794901325844                 10.8254
   147   1      12.371431039334132       9.281949010902828      8.8690499999999997
   148   1      10.515581986633455        8.66297426853445                 10.8254
   149   1      12.371431039334132       9.281949010902828      12.781750000000001
   150   2      11.134556729001831      6.8071252158337732      8.8690499999999997
   151   2      11.134556729001831      6.8071252158337732      12.781750000000001
   152   1      11.753534633647872      4.9512666763001159                 10.8254
   153   2      12.372509376016248      3.0954176235994386      8.8690499999999997
   154   2      12.372509376016248      3.0954176235994386      12.781750000000001
   155   3       3.091126412814591      12.373581388143046      18.716280000000001
   156   1       3.091126412814591      12.373581388143046      16.759930000000001
   157   1       3.091126412814591      12.373581388143046      20.672630000000002
   158   2     0.61673268750731935      11.135853262842502      16.759930000000001
   159   2     0.61673268750731935      11.135853262842502      20.672630000000002
   160   3      1.8544639750855232       8.661450050702248      18.716280000000001
   161   1      2.4727936128112269      10.517520462839139      18.716280000000001
   162   1      1.8544639750855232       8.661450050702248      16.759930000000001
   163   1  -0.0015969502183850823      9.2797828507056153      18.716280000000001
   164   1      1.8544639750855232       8.661450050702248      20.672630000000002
   165   3     0.61779837507879543      4.9493282000944321      18.716280000000001
   166   1      1.2361311750821593      6.8053891253983414      18.716280000000001
   167   1     0.61779837507879543      4.9493282000944321      16.759930000000001
   168   1     0.61779837507879543      4.9493282000944321      20.672630000000002
   169   1 -0.00053126264690804765       3.093257787957544      18.716280000000001
   170   3      6.8032482634224074      11.136915788136317      18.716280000000001
   171   1      6.8032482634224074      11.136915788136317      16.759930000000001
   172   1      4.9471873381184999      11.755248588139683      18.716280000000001
   173   1      6.8032482634224074      11.136915788136317      20.672630000000002
   174   2      4.3288545381151353      9.8991876628357733      16.759930000000001
   175   2      4.3288545381151353      9.8991876628357733      20.672630000000002
   176   3      5.5665858256933394      7.4247844506955207      18.716280000000001
   177   1      6.1849154634190446      9.2808548628324097      18.716280000000001
   178   1      5.5665858256933394      7.4247844506955207      16.759930000000001
   179   1      3.7105249003894318      8.0431172506988844      18.716280000000001
   180   1      5.5665858256933394      7.4247844506955207      20.672630000000002
   181   2      3.0921921003860677      6.1870563253949769      16.759930000000001
   182   2      3.0921921003860677      6.1870563253949769      20.672630000000002
   183   3      4.3299202256866121      3.7126626000877048      18.716280000000001
   184   1      4.9482530256899757      5.5687235253916132      18.716280000000001
   185   1      4.3299202256866121      3.7126626000877048      16.759930000000001
   186   1      2.4738593003827036      4.3309954000910684      18.716280000000001
   187   1      4.3299202256866121      3.7126626000877048      20.672630000000002
   188   2      1.8555296626569997      2.4749249879541799      16.759930000000001
   189   2      1.8555296626569997      2.4749249879541799      20.672630000000002
   190   3       3.093257787957544  0.00053126264690809037      18.716280000000001
   191   1      3.7115905879609081      1.8565921879508163      18.716280000000001
   192   1       3.093257787957544  0.00053126264690809037      16.759930000000001
   193   1       1.237196862653636     0.61886406265027205      18.716280000000001
   194   1       3.093257787957544  0.00053126264690809037      20.672630000000002
   195   2        9.27765147556266      12.374647075714522      16.759930000000001
   196   2        9.27765147556266      12.374647075714522      20.672630000000002
   197   3      10.515379600863204       9.900253350407251      18.716280000000001
   198   1      11.133712400866568      11.756314275711159      18.716280000000001
   199   1      10.515379600863204       9.900253350407251      16.759930000000001
   200   1      8.6593186755592946      10.518586150410615      18.716280000000001
   201   1      10.515379600863204       9.900253350407251      20.672630000000002
   202   2      8.0409858755559327      8.6625252251067053      16.759930000000001
   203   2      8.0409858755559327      8.6625252251067053      20.672630000000002
   204   3      9.2787171631341376      6.1881220129664536      18.716280000000001
   205   1      9.8970468008598402      8.0441924251033416      18.716280000000001
   206   1      9.2787171631341376      6.1881220129664536      16.759930000000001
   207   1      7.4226562378302292      6.8064548129698172      18.716280000000001
   208   1      9.2787171631341376      6.1881220129664536      20.672630000000002
   209   2      6.8043234378268647      4.9503938876659088      16.759930000000001
   210   2      6.8043234378268647      4.9503938876659088      20.672630000000002
   211   3      8.0420515631274085      2.4760001623586372      18.716280000000001
   212   1      8.6603843631307722      4.3320610876625452      18.716280000000001
   213   1      8.0420515631274085      2.4760001623586372      16.759930000000001
   214   1      6.1859906378235001      3.0943329623620013      18.716280000000001
   215   1      8.0420515631274085      2.4760001623586372      20.672630000000002
   216   2      5.5676610000977966      1.2382625502251126      16.759930000000001
   217   2      5.5676610000977966      1.2382625502251126      20.672630000000002
   218   1      7.4237219254017051     0.61992975022174879      18.716280000000001
   219   1      12.371440526167111      9.2819205504038873      18.716280000000001
   220   2      11.753107726163748       7.425859625099978      16.759930000000001
   221   2      11.753107726163748       7.425859625099978      20.672630000000002
   222   1      11.134778088438045      5.5697892129630899      18.716280000000001
   223   2      10.516445288434682      3.7137282876591819      16.759930000000001
   224   2      10.516445288434682      3.7137282876591819      20.672630000000002
   225   3      11.754182900568205      1.2393377246295696      18.716280000000001
   226   1      12.372515700571569      3.0953986499334776      18.716280000000001
   227   1      11.754182900568205      1.2393377246295696      16.759930000000001
   228   1      9.8981124884313161      1.8576673623552733      18.716280000000001
   229   1      11.754182900568205      1.2393377246295696      20.672630000000002
   230   2      9.2797828507056135   0.0015969502183849924      16.759930000000001
   231   2      9.2797828507056135   0.0015969502183849924      20.672630000000002
