(written by ASE)

189 atoms
3 atom types

0.0      12.373047943524554  xlo xhi
0.0      12.373047943524554  ylo yhi
0.0      61.803577947500003  zlo zhi

Masses

     1      15.998999995884349 # O
     2      87.619999977460253 # Sr
     3      47.866999987686484 # Ti

Atoms # atomic

     1   2     0.61865535232470115      1.2373107046494021     0.97818000000000005
     2   2     0.61865535232470115      1.2373107046494021      4.8908800000000001
     3   3      1.8559597324187831      3.7119194648375657      2.9345300000000001
     4   1      2.4746119224658236      1.8559628946964428      2.9345300000000001
     5   1      1.8559597324187831      3.7119194648375657     0.97818000000000005
     6   1      1.8559597324187831      3.7119194648375657      4.8908800000000001
     7   3     0.61865535232470148      7.4238326051198102      2.9345300000000001
     8   1      1.2373075423717421      5.5678760349786884      2.9345300000000001
     9   1     0.61865535232470148      7.4238326051198102     0.97818000000000005
    10   1     0.61865535232470148      7.4238326051198102      4.8908800000000001
    11   3      6.8051804150727699      1.2373012178164213      2.9345300000000001
    12   1      6.8051804150727699      1.2373012178164213     0.97818000000000005
    13   1      4.9492238449316472     0.61864902776938058      2.9345300000000001
    14   1      6.8051804150727699      1.2373012178164213      4.8908800000000001
    15   2      4.3305684926069459      2.4746150847434838     0.97818000000000005
    16   2      4.3305684926069459      2.4746150847434838      4.8908800000000001
    17   3      5.5678728727010283      4.9492238449316472      2.9345300000000001
    18   1      6.1865250627480686      3.0932672747905245      2.9345300000000001
    19   1      5.5678728727010283      4.9492238449316472     0.97818000000000005
    20   1      3.7119163025599051       4.330571654884606      2.9345300000000001
    21   1      5.5678728727010283      4.9492238449316472      4.8908800000000001
    22   2      3.0932641125128644      6.1865282250257287     0.97818000000000005
    23   2      3.0932641125128644      6.1865282250257287      4.8908800000000001
    24   3      4.3305684926069468      8.6611369852138917      2.9345300000000001
    25   1      4.9492206826539871      6.8051804150727699      2.9345300000000001
    26   1      4.3305684926069468      8.6611369852138917     0.97818000000000005
    27   1      2.4746119224658236      8.0424847951668514      2.9345300000000001
    28   1      4.3305684926069468      8.6611369852138917      4.8908800000000001
    29   2      1.8559597324187829      9.8984413653079741     0.97818000000000005
    30   2      1.8559597324187829      9.8984413653079741      4.8908800000000001
    31   1      3.7119163025599056      10.517093555355014      2.9345300000000001
    32   1      1.2373075423717419      11.754397935449097      2.9345300000000001
    33   3      10.517093555355016      2.4746055979105033      2.9345300000000001
    34   1      11.135745745402057     0.61864902776938069      2.9345300000000001
    35   1      10.517093555355016      2.4746055979105033     0.97818000000000005
    36   1      8.6611369852138935      1.8559534078634621      2.9345300000000001
    37   1      10.517093555355016      2.4746055979105033      4.8908800000000001
    38   2      8.0424816328891922      3.7119194648375653     0.97818000000000005
    39   2      8.0424816328891922      3.7119194648375653      4.8908800000000001
    40   3      9.2797860129832745      6.1865282250257287      2.9345300000000001
    41   1      9.8984382030303149       4.330571654884606      2.9345300000000001
    42   1      9.2797860129832745      6.1865282250257287     0.97818000000000005
    43   1      7.4238294428421518      5.5678760349786875      2.9345300000000001
    44   1      9.2797860129832745      6.1865282250257287      4.8908800000000001
    45   2      6.8051772527951107      7.4238326051198102     0.97818000000000005
    46   2      6.8051772527951107      7.4238326051198102      4.8908800000000001
    47   3      8.0424816328891922      9.8984413653079741      2.9345300000000001
    48   1      8.6611338229362342      8.0424847951668514      2.9345300000000001
    49   1      8.0424816328891922      9.8984413653079741     0.97818000000000005
    50   1      6.1865250627480703      9.2797891752609321      2.9345300000000001
    51   1      8.0424816328891922      9.8984413653079741      4.8908800000000001
    52   2      5.5678728727010292      11.135745745402057     0.97818000000000005
    53   2      5.5678728727010292      11.135745745402057      4.8908800000000001
    54   1      7.4238294428421518      11.754397935449097      2.9345300000000001
    55   2      11.754394773171436      4.9492238449316464     0.97818000000000005
    56   2      11.754394773171436      4.9492238449316464      4.8908800000000001
    57   1      11.135742583124395      6.8051804150727691      2.9345300000000001
    58   2      10.517090393077355      8.6611369852138917     0.97818000000000005
    59   2      10.517090393077355      8.6611369852138917      4.8908800000000001
    60   3      11.754394773171436      11.135745745402055      2.9345300000000001
    61   1      11.754394773171436      11.135745745402055     0.97818000000000005
    62   1      9.8984382030303131      10.517093555355014      2.9345300000000001
    63   1      11.754394773171436      11.135745745402055      4.8908800000000001
    64   2      11.135954455727628     0.61476575080269402      8.8690499999999997
    65   2      11.135954455727628     0.61476575080269402      12.781750000000001
    66   3      8.6617852521342265      1.8529334326980016                 10.8254
    67   1      10.517956857156239      2.4709405181023674                 10.8254
    68   1      8.6617852521342265      1.8529334326980016      8.8690499999999997
    69   1      8.6617852521342265      1.8529334326980016      12.781750000000001
    70   3      4.9494293929795585     0.61692558644458872                 10.8254
    71   1      6.8056136471122128      1.2349263472936347                 10.8254
    72   1      4.9494293929795585     0.61692558644458872      8.8690499999999997
    73   1      4.9494293929795585     0.61692558644458872      12.781750000000001
    74   3      11.138114291369522      6.8012908135507617                 10.8254
    75   1      11.138114291369522      6.8012908135507617      8.8690499999999997
    76   1      11.756121376773891      4.9451192085287481                 10.8254
    77   1      11.138114291369522      6.8012908135507617      12.781750000000001
    78   2      9.8999497717518743      4.3271121231243823      8.8690499999999997
    79   2      9.8999497717518743      4.3271121231243823      12.781750000000001
    80   3      7.4257710813254949      5.5652766427420293                 10.8254
    81   1      9.2819426863475076       6.183283728146395                 10.8254
    82   1      7.4257710813254949      5.5652766427420293      8.8690499999999997
    83   1      8.0437781667298598      3.7091050377200152                 10.8254
    84   1      7.4257710813254949      5.5652766427420293      12.781750000000001
    85   2      6.1876033994301869      3.0911074391486295      8.8690499999999997
    86   2      6.1876033994301869      3.0911074391486295      12.781750000000001
    87   3      3.7134247090038053      4.3292719587662774                 10.8254
    88   1      5.5695963140258202       4.947279044170644                 10.8254
    89   1      3.7134247090038053      4.3292719587662774      8.8690499999999997
    90   1      4.3314317944081715      2.4731003537442628                 10.8254
    91   1      3.7134247090038053      4.3292719587662774      12.781750000000001
    92   2      2.4752601893861583      1.8550932683398964      8.8690499999999997
    93   2      2.4752601893861583      1.8550932683398964      12.781750000000001
    94   1      1.8572531039817917      3.7112648733619107                 10.8254
    95   1     0.61908858436414405        1.23708618293553                 10.8254
    96   3      9.9021096073937702      10.513637185872449                 10.8254
    97   1      11.758281212415785      11.131644271276818                 10.8254
    98   1      9.9021096073937702      10.513637185872449      8.8690499999999997
    99   1      10.520116692798137      8.6574655808504364                 10.8254
   100   1      9.9021096073937702      10.513637185872449      12.781750000000001
   101   2      8.6639450877761206      8.0394584954460697      8.8690499999999997
   102   2      8.6639450877761206      8.0394584954460697      12.781750000000001
   103   3      6.1897663973497421      9.2776230150637176                 10.8254
   104   1      8.0459380023717557      9.8956301004680842                 10.8254
   105   1      6.1897663973497421      9.2776230150637176      8.8690499999999997
   106   1      6.8077639959211274      7.4214482477640438                 10.8254
   107   1      6.1897663973497421      9.2776230150637176      12.781750000000001
   108   2      4.9515892286214536      6.8034506491926576      8.8690499999999997
   109   2      4.9515892286214536      6.8034506491926576      12.781750000000001
   110   3      2.4774200250280534      8.0416183310879656                 10.8254
   111   1      4.3335916300500674      8.6596254164923305                 10.8254
   112   1      2.4774200250280534      8.0416183310879656      8.8690499999999997
   113   1      3.0954176235994391       6.185443563788291                 10.8254
   114   1      2.4774200250280534      8.0416183310879656      12.781750000000001
   115   2      1.2392460185774254      5.5674364783839243      8.8690499999999997
   116   2      1.2392460185774254      5.5674364783839243      12.781750000000001
   117   1     0.62124842000603986       7.423611245683599                 10.8254
   118   2      7.4279309169673891      11.751801705490099      8.8690499999999997
   119   2      7.4279309169673891      11.751801705490099      12.781750000000001
   120   1      5.5717593119453745      11.133794620085732                 10.8254
   121   2      3.7155845446457012      10.515797021514345      8.8690499999999997
   122   2      3.7155845446457012      10.515797021514345      12.781750000000001
   123   3      1.2414058542193209      11.753961541131993                 10.8254
   124   1      1.2414058542193209      11.753961541131993      8.8690499999999997
   125   1      1.8594129396236874      9.8977899361099784                 10.8254
   126   1      1.2414058542193209      11.753961541131993      12.781750000000001
   127   3      11.136726051476709      5.5659059359964029      18.716280000000001
   128   1      11.755707118400405      7.4217613132524001      18.716280000000001
   129   1      11.136726051476709      5.5659059359964029      16.759930000000001
   130   1      11.136726051476709      5.5659059359964029      20.672630000000002
   131   3      9.8987670799069711      1.8542173174280294      18.716280000000001
   132   1      10.517741822275351      3.7100600455733859      18.716280000000001
   133   1      9.8987670799069711      1.8542173174280294      16.759930000000001
   134   1      11.754612970329989      1.2352330882266713      18.716280000000001
   135   1      9.8987670799069711      1.8542173174280294      20.672630000000002
   136   2      11.137810712714147      11.752430998744472      16.759930000000001
   137   2      11.137810712714147      11.752430998744472      20.672630000000002
   138   3      8.6629837553674314      10.515559850689833      18.716280000000001
   139   1      8.6629837553674314      10.515559850689833      16.759930000000001
   140   1      10.518835970345769      9.8965882705991142      18.716280000000001
   141   1      8.6629837553674314      10.515559850689833      20.672630000000002
   142   2      9.8998549034220691       8.040732893343117      16.759930000000001
   143   2      9.8998549034220691       8.040732893343117      20.672630000000002
   144   3      7.4250247837976939      6.8038712321214598      18.716280000000001
   145   1      8.0440090129990534      8.6597171225444765      18.716280000000001
   146   1      7.4250247837976939      6.8038712321214598      16.759930000000001
   147   1      9.2808801610536911      6.1848901651977615      18.716280000000001
   148   1      7.4250247837976939      6.8038712321214598      20.672630000000002
   149   2      8.6618959318523334      4.3290442747747448      16.759930000000001
   150   2      8.6618959318523334      4.3290442747747448      20.672630000000002
   151   3      6.1870689745056184      3.0921731267201062      18.716280000000001
   152   1       6.806053203706977      4.9480190171431229      18.716280000000001
   153   1      6.1870689745056184      3.0921731267201062      16.759930000000001
   154   1      8.0429148649286333      2.4731888975187473      18.716280000000001
   155   1      6.1870689745056184      3.0921731267201062      20.672630000000002
   156   2      7.4239401225602561     0.61734616937339126      16.759930000000001
   157   2      7.4239401225602561     0.61734616937339126      20.672630000000002
   158   1      5.5680879075819192      1.2363177494641089      18.716280000000001
   159   3      4.9512951367990574       11.75351882225957      18.716280000000001
   160   1      4.9512951367990574       11.75351882225957      16.759930000000001
   161   1      6.8071378649444139      11.134544079891192      18.716280000000001
   162   1      4.9512951367990574       11.75351882225957      20.672630000000002
   163   2      6.1881662848536969      9.2786918649128545      16.759930000000001
   164   2      6.1881662848536969      9.2786918649128545      20.672630000000002
   165   3      3.7133361652293213      8.0418302036911964      18.716280000000001
   166   1      4.3323109075976998      9.8976729318365528      18.716280000000001
   167   1      3.7133361652293213      8.0418302036911964      16.759930000000001
   168   1      5.5691820556523384      7.4228459744898379      18.716280000000001
   169   1      3.7133361652293213      8.0418302036911964      20.672630000000002
   170   2      4.9501978264509798      5.5670000840668212      16.759930000000001
   171   2      4.9501978264509798      5.5670000840668212      20.672630000000002
   172   3       2.475370869104264      4.3301289360121826      18.716280000000001
   173   1      3.0943550983056229      6.1859748264351992      18.716280000000001
   174   1       2.475370869104264      4.3301289360121826      16.759930000000001
   175   1      4.3312262463602611      3.7111478690884847      18.716280000000001
   176   1       2.475370869104264      4.3301289360121826      20.672630000000002
   177   2      3.7122420171589026      1.8553019786654674      16.759930000000001
   178   2      3.7122420171589026      1.8553019786654674      20.672630000000002
   179   3      1.2374150598121876     0.61843083061082904      18.716280000000001
   180   1      1.8563961267358859      2.4742862078668262      18.716280000000001
   181   1      1.2374150598121876     0.61843083061082904      16.759930000000001
   182   1      1.2374150598121876     0.61843083061082904      20.672630000000002
   183   2      2.4764650171746831       10.51665716103791      16.759930000000001
   184   2      2.4764650171746831       10.51665716103791      20.672630000000002
   185   1     0.62061280219634529      11.135628741128629      18.716280000000001
   186   1      1.8574839502509837      8.6608017837819133      18.716280000000001
   187   2      1.2385092078826061      6.8049590556365578      16.759930000000001
   188   2      1.2385092078826061      6.8049590556365578      20.672630000000002
   189   1     0.61952497868124745      4.9491131652135412      18.716280000000001
