(written by ASE)

189 atoms
3 atom types

0.0      12.373047943524554  xlo xhi
0.0      12.373047943524554  ylo yhi
0.0      61.803577947500003  zlo zhi

Masses

     1      15.998999995884349 # O
     2      87.619999977460253 # Sr
     3      47.866999987686484 # Ti

Atoms # atomic

     1   3      1.2373012178164211      6.8051804150727699      2.9345300000000001
     2   1     0.61864902776938047      4.9492238449316472      2.9345300000000001
     3   1      1.2373012178164211      6.8051804150727699     0.97818000000000005
     4   1      1.2373012178164211      6.8051804150727699      4.8908800000000001
     5   3      2.4746055979105033      10.517093555355016      2.9345300000000001
     6   1      1.8559534078634621      8.6611369852138935      2.9345300000000001
     7   1      2.4746055979105033      10.517093555355016     0.97818000000000005
     8   1     0.61864902776938036      11.135745745402057      2.9345300000000001
     9   1      2.4746055979105033      10.517093555355016      4.8908800000000001
    10   2      1.2373107046494021     0.61865535232470104     0.97818000000000005
    11   2      1.2373107046494021     0.61865535232470104      4.8908800000000001
    12   3      3.7119194648375657      1.8559597324187829      2.9345300000000001
    13   1      3.7119194648375657      1.8559597324187829     0.97818000000000005
    14   1      1.8559628946964428      2.4746119224658236      2.9345300000000001
    15   1      3.7119194648375657      1.8559597324187829      4.8908800000000001
    16   2      2.4746150847434838      4.3305684926069468     0.97818000000000005
    17   2      2.4746150847434838      4.3305684926069468      4.8908800000000001
    18   3      4.9492238449316472      5.5678728727010274      2.9345300000000001
    19   1       4.330571654884606      3.7119163025599056      2.9345300000000001
    20   1      4.9492238449316472      5.5678728727010274     0.97818000000000005
    21   1      3.0932672747905245      6.1865250627480686      2.9345300000000001
    22   1      4.9492238449316472      5.5678728727010274      4.8908800000000001
    23   2      3.7119194648375653      8.0424816328891922     0.97818000000000005
    24   2      3.7119194648375653      8.0424816328891922      4.8908800000000001
    25   3      6.1865282250257287      9.2797860129832745      2.9345300000000001
    26   1      5.5678760349786884       7.423829442842151      2.9345300000000001
    27   1      6.1865282250257287      9.2797860129832745     0.97818000000000005
    28   1       4.330571654884606      9.8984382030303149      2.9345300000000001
    29   1      6.1865282250257287      9.2797860129832745      4.8908800000000001
    30   2      4.9492238449316464      11.754394773171436     0.97818000000000005
    31   2      4.9492238449316464      11.754394773171436      4.8908800000000001
    32   1      6.8051804150727691      11.135742583124395      2.9345300000000001
    33   3      7.4238326051198102     0.61865535232470126      2.9345300000000001
    34   1      7.4238326051198102     0.61865535232470126     0.97818000000000005
    35   1      5.5678760349786875      1.2373075423717421      2.9345300000000001
    36   1      7.4238326051198102     0.61865535232470126      4.8908800000000001
    37   2      6.1865282250257287      3.0932641125128648     0.97818000000000005
    38   2      6.1865282250257287      3.0932641125128648      4.8908800000000001
    39   3      8.6611369852138917      4.3305684926069459      2.9345300000000001
    40   1      8.0424847951668514      2.4746119224658241      2.9345300000000001
    41   1      8.6611369852138917      4.3305684926069459     0.97818000000000005
    42   1      6.8051804150727691      4.9492206826539871      2.9345300000000001
    43   1      8.6611369852138917      4.3305684926069459      4.8908800000000001
    44   2      7.4238326051198102      6.8051772527951098     0.97818000000000005
    45   2      7.4238326051198102      6.8051772527951098      4.8908800000000001
    46   3      9.8984413653079741      8.0424816328891922      2.9345300000000001
    47   1      9.2797891752609338      6.1865250627480695      2.9345300000000001
    48   1      9.8984413653079741      8.0424816328891922     0.97818000000000005
    49   1      8.0424847951668514      8.6611338229362325      2.9345300000000001
    50   1      9.8984413653079741      8.0424816328891922      4.8908800000000001
    51   2      8.6611369852138917      10.517090393077355     0.97818000000000005
    52   2      8.6611369852138917      10.517090393077355      4.8908800000000001
    53   3      11.135745745402055      11.754394773171438      2.9345300000000001
    54   1      10.517093555355014      9.8984382030303131      2.9345300000000001
    55   1      11.135745745402055      11.754394773171438     0.97818000000000005
    56   1      11.135745745402055      11.754394773171438      4.8908800000000001
    57   2      9.8984413653079741      1.8559597324187831     0.97818000000000005
    58   2      9.8984413653079741      1.8559597324187831      4.8908800000000001
    59   1      11.754397935449097      1.2373075423717419      2.9345300000000001
    60   1      10.517093555355016      3.7119163025599056      2.9345300000000001
    61   2      11.135745745402057      5.5678728727010283     0.97818000000000005
    62   2      11.135745745402057      5.5678728727010283      4.8908800000000001
    63   1      11.754397935449097      7.4238294428421518      2.9345300000000001
    64   3      5.5687298499469335      1.2334179408497348                 10.8254
    65   1      7.4242563503262726     0.61347554151734551                 10.8254
    66   1      5.5687298499469335      1.2334179408497348      8.8690499999999997
    67   1      5.5687298499469335      1.2334179408497348      12.781750000000001
    68   3      1.8576800114659142      2.4733122263474945                 10.8254
    69   1      3.7132065118452542      1.8533698270151049                 10.8254
    70   1      1.8576800114659142      2.4733122263474945      8.8690499999999997
    71   1      1.2377376121335246     0.61778572596815473                 10.8254
    72   1      1.8576800114659142      2.4733122263474945      12.781750000000001
    73   2      11.755254912695003      1.2290951072882847      8.8690499999999997
    74   2      11.755254912695003      1.2290951072882847      12.781750000000001
    75   3      10.519683460758694      3.7045703315553342                 10.8254
    76   1      10.519683460758694      3.7045703315553342      8.8690499999999997
    77   1      9.8997315745933232      1.8490469934536553                 10.8254
    78   1      10.519683460758694      3.7045703315553342      12.781750000000001
    79   2      8.0442082364916434      2.4689988796190248      8.8690499999999997
    80   2      8.0442082364916434      2.4689988796190248      12.781750000000001
    81   3      6.8086336222776742      4.9444646170530939                 10.8254
    82   1      8.6641601226570142      4.3245222177207054                 10.8254
    83   1      6.8086336222776742      4.9444646170530939      8.8690499999999997
    84   1      6.1886817361123034      3.0889412789514146                 10.8254
    85   1      6.8086336222776742      4.9444646170530939      12.781750000000001
    86   2      4.3331583980106236       3.708893165116784      8.8690499999999997
    87   2      4.3331583980106236       3.708893165116784      12.781750000000001
    88   3       3.097583783796654      6.1843589025508541                 10.8254
    89   1      4.9531102841759935      5.5644165032184638                 10.8254
    90   1       3.097583783796654      6.1843589025508541      8.8690499999999997
    91   1      2.4776318976312841      4.3288355644491734                 10.8254
    92   1       3.097583783796654      6.1843589025508541      12.781750000000001
    93   2     0.62210855952960475      4.9487874506145442      8.8690499999999997
    94   2     0.62210855952960475      4.9487874506145442      12.781750000000001
    95   1      1.2420604456949746      6.8043107887162231                 10.8254
    96   3      11.759577746256452      7.4156201700363544                 10.8254
    97   1      11.759577746256452      7.4156201700363544      8.8690499999999997
    98   1      11.139625860091082      5.5600968319346746                 10.8254
    99   1      11.759577746256452      7.4156201700363544      12.781750000000001
   100   2      9.2841025219894018      6.1800487181000436      8.8690499999999997
   101   2      9.2841025219894018      6.1800487181000436      12.781750000000001
   102   3      8.0485279077754335      8.6555144555341137                 10.8254
   103   1      9.9040544081547726      8.0355720562017243                 10.8254
   104   1      8.0485279077754335      8.6555144555341137      8.8690499999999997
   105   1      7.4285760216100636      6.7999911174324339                 10.8254
   106   1      8.0485279077754335      8.6555144555341137      12.781750000000001
   107   2      5.5730526835083838      7.4199430035978038      8.8690499999999997
   108   2      5.5730526835083838      7.4199430035978038      12.781750000000001
   109   3      4.3374780692944137      9.8954087410318738                 10.8254
   110   1      6.1930045696737537      9.2754663416994827                 10.8254
   111   1      4.3374780692944137      9.8954087410318738      8.8690499999999997
   112   1      3.7175261831290438      8.0398854029301923                 10.8254
   113   1      4.3374780692944137      9.8954087410318738      12.781750000000001
   114   2       1.862002845027364      8.6598372890955631      8.8690499999999997
   115   2       1.862002845027364      8.6598372890955631      12.781750000000001
   116   3     0.62642823081339416      11.135303026529632                 10.8254
   117   1      2.4819547311927344      10.515360627197243                 10.8254
   118   1     0.62642823081339416      11.135303026529632      8.8690499999999997
   119   1     0.62642823081339416      11.135303026529632      12.781750000000001
   120   2      10.523996807487162      9.8910985565810634      8.8690499999999997
   121   2      10.523996807487162      9.8910985565810634      12.781750000000001
   122   1      11.143948693652533      11.746621894682743                 10.8254
   123   1      8.6684703071078228      10.511040955913453                 10.8254
   124   2       6.812946969006143      11.130992842078824      8.8690499999999997
   125   2       6.812946969006143      11.130992842078824      12.781750000000001
   126   1      4.9574204686268031      11.750935241411213                 10.8254
   127   2      11.135853262842502     0.61673268750731935      16.759930000000001
   128   2      11.135853262842502     0.61673268750731935      20.672630000000002
   129   3       8.661450050702248      1.8544639750855232      18.716280000000001
   130   1      10.517520462839139      2.4727936128112269      18.716280000000001
   131   1       8.661450050702248      1.8544639750855232      16.759930000000001
   132   1       8.661450050702248      1.8544639750855232      20.672630000000002
   133   3      4.9493282000944321     0.61779837507879543      18.716280000000001
   134   1      6.8053891253983414      1.2361311750821593      18.716280000000001
   135   1      4.9493282000944321     0.61779837507879543      16.759930000000001
   136   1      4.9493282000944321     0.61779837507879543      20.672630000000002
   137   3      11.136915788136317      6.8032482634224074      18.716280000000001
   138   1      11.136915788136317      6.8032482634224074      16.759930000000001
   139   1      11.755248588139683      4.9471873381184999      18.716280000000001
   140   1      11.136915788136317      6.8032482634224074      20.672630000000002
   141   2      9.8991876628357733      4.3288545381151353      16.759930000000001
   142   2      9.8991876628357733      4.3288545381151353      20.672630000000002
   143   3      7.4247844506955207      5.5665858256933394      18.716280000000001
   144   1      9.2808548628324097      6.1849154634190446      18.716280000000001
   145   1      7.4247844506955207      5.5665858256933394      16.759930000000001
   146   1      8.0431172506988844      3.7105249003894318      18.716280000000001
   147   1      7.4247844506955207      5.5665858256933394      20.672630000000002
   148   2      6.1870563253949769      3.0921921003860677      16.759930000000001
   149   2      6.1870563253949769      3.0921921003860677      20.672630000000002
   150   3      3.7126626000877048      4.3299202256866121      18.716280000000001
   151   1      5.5687235253916132      4.9482530256899757      18.716280000000001
   152   1      3.7126626000877048      4.3299202256866121      16.759930000000001
   153   1      4.3309954000910684      2.4738593003827036      18.716280000000001
   154   1      3.7126626000877048      4.3299202256866121      20.672630000000002
   155   2      2.4749249879541799      1.8555296626569997      16.759930000000001
   156   2      2.4749249879541799      1.8555296626569997      20.672630000000002
   157   1      1.8565921879508163      3.7115905879609081      18.716280000000001
   158   1     0.61886406265027205       1.237196862653636      18.716280000000001
   159   3       9.900253350407251      10.515379600863204      18.716280000000001
   160   1      11.756314275711159      11.133712400866568      18.716280000000001
   161   1       9.900253350407251      10.515379600863204      16.759930000000001
   162   1      10.518586150410615      8.6593186755592946      18.716280000000001
   163   1       9.900253350407251      10.515379600863204      20.672630000000002
   164   2      8.6625252251067053      8.0409858755559327      16.759930000000001
   165   2      8.6625252251067053      8.0409858755559327      20.672630000000002
   166   3      6.1881220129664536      9.2787171631341376      18.716280000000001
   167   1      8.0441924251033416      9.8970468008598402      18.716280000000001
   168   1      6.1881220129664536      9.2787171631341376      16.759930000000001
   169   1      6.8064548129698172      7.4226562378302292      18.716280000000001
   170   1      6.1881220129664536      9.2787171631341376      20.672630000000002
   171   2      4.9503938876659088      6.8043234378268647      16.759930000000001
   172   2      4.9503938876659088      6.8043234378268647      20.672630000000002
   173   3      2.4760001623586372      8.0420515631274085      18.716280000000001
   174   1      4.3320610876625452      8.6603843631307722      18.716280000000001
   175   1      2.4760001623586372      8.0420515631274085      16.759930000000001
   176   1      3.0943329623620013      6.1859906378235001      18.716280000000001
   177   1      2.4760001623586372      8.0420515631274085      20.672630000000002
   178   2      1.2382625502251126      5.5676610000977966      16.759930000000001
   179   2      1.2382625502251126      5.5676610000977966      20.672630000000002
   180   1     0.61992975022174879      7.4237219254017051      18.716280000000001
   181   2       7.425859625099978      11.753107726163748      16.759930000000001
   182   2       7.425859625099978      11.753107726163748      20.672630000000002
   183   1      5.5697892129630899      11.134778088438045      18.716280000000001
   184   2      3.7137282876591819      10.516445288434682      16.759930000000001
   185   2      3.7137282876591819      10.516445288434682      20.672630000000002
   186   3      1.2393377246295696      11.754182900568205      18.716280000000001
   187   1      1.2393377246295696      11.754182900568205      16.759930000000001
   188   1      1.8576673623552733      9.8981124884313161      18.716280000000001
   189   1      1.2393377246295696      11.754182900568205      20.672630000000002
