(written by ASE)

231 atoms
3 atom types

0.0      12.373047943524554  xlo xhi
0.0      12.373047943524554  ylo yhi
0.0      61.803577947500003  zlo zhi

Masses

     1      15.998999995884349 # O
     2      87.619999977460253 # Sr
     3      47.866999987686484 # Ti

Atoms # atomic

     1   3  3.1622776605742503e-06      9.2797891752609338      2.9345300000000001
     2   1  3.1622776605742503e-06      9.2797891752609338     0.97818000000000005
     3   1  3.1622776605742503e-06      9.2797891752609338      4.8908800000000001
     4   3      1.2373075423717421      5.5678760349786884      2.9345300000000001
     5   1     0.61865535232470148      7.4238326051198102      2.9345300000000001
     6   1      1.2373075423717421      5.5678760349786884     0.97818000000000005
     7   1      1.2373075423717421      5.5678760349786884      4.8908800000000001
     8   2  3.1622776603020139e-06      3.0932672747905245     0.97818000000000005
     9   2  3.1622776603020139e-06      3.0932672747905245      4.8908800000000001
    10   3      2.4746119224658236      1.8559628946964428      2.9345300000000001
    11   1      1.8559597324187831      3.7119194648375657      2.9345300000000001
    12   1      2.4746119224658236      1.8559628946964428     0.97818000000000005
    13   1     0.61865535232470115      1.2373107046494021      2.9345300000000001
    14   1      2.4746119224658236      1.8559628946964428      4.8908800000000001
    15   1       3.093267274790525 -3.1622776602803328e-06      2.9345300000000001
    16   2      1.2373075423717419      11.754397935449097     0.97818000000000005
    17   2      1.2373075423717419      11.754397935449097      4.8908800000000001
    18   3      3.7119163025599056      10.517093555355014      2.9345300000000001
    19   1      3.0932641125128644      12.373050125496139      2.9345300000000001
    20   1      3.7119163025599056      10.517093555355014     0.97818000000000005
    21   1      1.8559597324187829      9.8984413653079741      2.9345300000000001
    22   1      3.7119163025599056      10.517093555355014      4.8908800000000001
    23   2      2.4746119224658236      8.0424847951668514     0.97818000000000005
    24   2      2.4746119224658236      8.0424847951668514      4.8908800000000001
    25   3      4.9492206826539871      6.8051804150727699      2.9345300000000001
    26   1      4.3305684926069468      8.6611369852138917      2.9345300000000001
    27   1      4.9492206826539871      6.8051804150727699     0.97818000000000005
    28   1      3.0932641125128644      6.1865282250257287      2.9345300000000001
    29   1      4.9492206826539871      6.8051804150727699      4.8908800000000001
    30   2      3.7119163025599051       4.330571654884606     0.97818000000000005
    31   2      3.7119163025599051       4.330571654884606      4.8908800000000001
    32   3      6.1865250627480686      3.0932672747905245      2.9345300000000001
    33   1      5.5678728727010283      4.9492238449316472      2.9345300000000001
    34   1      6.1865250627480686      3.0932672747905245     0.97818000000000005
    35   1      4.3305684926069459      2.4746150847434838      2.9345300000000001
    36   1      6.1865250627480686      3.0932672747905245      4.8908800000000001
    37   2      4.9492238449316472     0.61864902776938058     0.97818000000000005
    38   2      4.9492238449316472     0.61864902776938058      4.8908800000000001
    39   1      6.8051804150727699      1.2373012178164213      2.9345300000000001
    40   3      7.4238294428421518      11.754397935449097      2.9345300000000001
    41   1      7.4238294428421518      11.754397935449097     0.97818000000000005
    42   1      5.5678728727010292      11.135745745402057      2.9345300000000001
    43   1      7.4238294428421518      11.754397935449097      4.8908800000000001
    44   2      6.1865250627480703      9.2797891752609321     0.97818000000000005
    45   2      6.1865250627480703      9.2797891752609321      4.8908800000000001
    46   3      8.6611338229362342      8.0424847951668514      2.9345300000000001
    47   1      8.0424816328891922      9.8984413653079741      2.9345300000000001
    48   1      8.6611338229362342      8.0424847951668514     0.97818000000000005
    49   1      6.8051772527951107      7.4238326051198102      2.9345300000000001
    50   1      8.6611338229362342      8.0424847951668514      4.8908800000000001
    51   2      7.4238294428421518      5.5678760349786875     0.97818000000000005
    52   2      7.4238294428421518      5.5678760349786875      4.8908800000000001
    53   3      9.8984382030303149       4.330571654884606      2.9345300000000001
    54   1      9.2797860129832745      6.1865282250257287      2.9345300000000001
    55   1      9.8984382030303149       4.330571654884606     0.97818000000000005
    56   1      8.0424816328891922      3.7119194648375653      2.9345300000000001
    57   1      9.8984382030303149       4.330571654884606      4.8908800000000001
    58   2      8.6611369852138935      1.8559534078634621     0.97818000000000005
    59   2      8.6611369852138935      1.8559534078634621      4.8908800000000001
    60   3      11.135745745402057     0.61864902776938069      2.9345300000000001
    61   1      10.517093555355016      2.4746055979105033      2.9345300000000001
    62   1      11.135745745402057     0.61864902776938069     0.97818000000000005
    63   1      9.2797891752609338 -3.1622776605583621e-06      2.9345300000000001
    64   1      11.135745745402057     0.61864902776938069      4.8908800000000001
    65   1      9.2797860129832728      12.373050125496137      2.9345300000000001
    66   2      9.8984382030303131      10.517093555355014     0.97818000000000005
    67   2      9.8984382030303131      10.517093555355014      4.8908800000000001
    68   3      12.373046963218478      9.2797891752609338      2.9345300000000001
    69   1      11.754394773171436      11.135745745402055      2.9345300000000001
    70   1      12.373046963218478      9.2797891752609338     0.97818000000000005
    71   1      10.517090393077355      8.6611369852138917      2.9345300000000001
    72   1      12.373046963218478      9.2797891752609338      4.8908800000000001
    73   2      11.135742583124395      6.8051804150727691     0.97818000000000005
    74   2      11.135742583124395      6.8051804150727691      4.8908800000000001
    75   1      11.754394773171436      4.9492238449316464      2.9345300000000001
    76   2      12.373050125496137      3.0932577879575436     0.97818000000000005
    77   2      12.373050125496137      3.0932577879575436      4.8908800000000001
    78   3      3.0911264128145906      12.373581388143046                 10.8254
    79   1      3.0911264128145906      12.373581388143046      8.8690499999999997
    80   1      3.0911264128145906      12.373581388143046      12.781750000000001
    81   2     0.61673268750731947      11.135853262842502      8.8690499999999997
    82   2     0.61673268750731947      11.135853262842502      12.781750000000001
    83   3      1.8544639750855232      8.6614500507022498                 10.8254
    84   1      2.4727936128112264      10.517520462839139                 10.8254
    85   1      1.8544639750855232      8.6614500507022498      8.8690499999999997
    86   1  -0.0015969502183849924      9.2797828507056135                 10.8254
    87   1      1.8544639750855232      8.6614500507022498      12.781750000000001
    88   3     0.61779837507879531       4.949328200094433                 10.8254
    89   1      1.2361311750821595      6.8053891253983414                 10.8254
    90   1     0.61779837507879531       4.949328200094433      8.8690499999999997
    91   1     0.61779837507879531       4.949328200094433      12.781750000000001
    92   1 -0.00053126264690809037       3.093257787957544                 10.8254
    93   3      6.8032482634224083      11.136915788136319                 10.8254
    94   1      6.8032482634224083      11.136915788136319      8.8690499999999997
    95   1      4.9471873381184999      11.755248588139681                 10.8254
    96   1      6.8032482634224083      11.136915788136319      12.781750000000001
    97   2      4.3288545381151353      9.8991876628357733      8.8690499999999997
    98   2      4.3288545381151353      9.8991876628357733      12.781750000000001
    99   3      5.5665858256933394      7.4247844506955207                 10.8254
   100   1      6.1849154634190455      9.2808548628324097                 10.8254
   101   1      5.5665858256933394      7.4247844506955207      8.8690499999999997
   102   1      3.7105249003894318      8.0431172506988844                 10.8254
   103   1      5.5665858256933394      7.4247844506955207      12.781750000000001
   104   2      3.0921921003860677      6.1870563253949777      8.8690499999999997
   105   2      3.0921921003860677      6.1870563253949777      12.781750000000001
   106   3      4.3299202256866121      3.7126626000877048                 10.8254
   107   1      4.9482530256899757      5.5687235253916132                 10.8254
   108   1      4.3299202256866121      3.7126626000877048      8.8690499999999997
   109   1      2.4738593003827036      4.3309954000910684                 10.8254
   110   1      4.3299202256866121      3.7126626000877048      12.781750000000001
   111   2      1.8555296626569997      2.4749249879541804      8.8690499999999997
   112   2      1.8555296626569997      2.4749249879541804      12.781750000000001
   113   3       3.093257787957544  0.00053126264690804765                 10.8254
   114   1      3.7115905879609081      1.8565921879508163                 10.8254
   115   1       3.093257787957544  0.00053126264690804765      8.8690499999999997
   116   1       1.237196862653636     0.61886406265027205                 10.8254
   117   1       3.093257787957544  0.00053126264690804765      12.781750000000001
   118   2        9.27765147556266      12.374647075714522      8.8690499999999997
   119   2        9.27765147556266      12.374647075714522      12.781750000000001
   120   3      10.515379600863206       9.900253350407251                 10.8254
   121   1      11.133712400866568      11.756314275711159                 10.8254
   122   1      10.515379600863206       9.900253350407251      8.8690499999999997
   123   1      8.6593186755592946      10.518586150410615                 10.8254
   124   1      10.515379600863206       9.900253350407251      12.781750000000001
   125   2      8.0409858755559327      8.6625252251067053      8.8690499999999997
   126   2      8.0409858755559327      8.6625252251067053      12.781750000000001
   127   3      9.2787171631341376      6.1881220129664536                 10.8254
   128   1      9.8970468008598402      8.0441924251033416                 10.8254
   129   1      9.2787171631341376      6.1881220129664536      8.8690499999999997
   130   1      7.4226562378302301      6.8064548129698172                 10.8254
   131   1      9.2787171631341376      6.1881220129664536      12.781750000000001
   132   2      6.8043234378268638      4.9503938876659088      8.8690499999999997
   133   2      6.8043234378268638      4.9503938876659088      12.781750000000001
   134   3      8.0420515631274085      2.4760001623586376                 10.8254
   135   1      8.6603843631307722      4.3320610876625452                 10.8254
   136   1      8.0420515631274085      2.4760001623586376      8.8690499999999997
   137   1      6.1859906378235001      3.0943329623620013                 10.8254
   138   1      8.0420515631274085      2.4760001623586376      12.781750000000001
   139   2      5.5676610000977966      1.2382625502251126      8.8690499999999997
   140   2      5.5676610000977966      1.2382625502251126      12.781750000000001
   141   1      7.4237219254017051     0.61992975022174857                 10.8254
   142   1      12.371440526167113      9.2819205504038873                 10.8254
   143   2      11.753107726163748       7.425859625099978      8.8690499999999997
   144   2      11.753107726163748       7.425859625099978      12.781750000000001
   145   1      11.134778088438045      5.5697892129630899                 10.8254
   146   2      10.516445288434682      3.7137282876591815      8.8690499999999997
   147   2      10.516445288434682      3.7137282876591815      12.781750000000001
   148   3      11.754182900568205      1.2393377246295696                 10.8254
   149   1       12.37251570057157      3.0953986499334776                 10.8254
   150   1      11.754182900568205      1.2393377246295696      8.8690499999999997
   151   1      9.8981124884313179      1.8576673623552733                 10.8254
   152   1      11.754182900568205      1.2393377246295696      12.781750000000001
   153   2      9.2797828507056153   0.0015969502183850823      8.8690499999999997
   154   2      9.2797828507056153   0.0015969502183850823      12.781750000000001
   155   3      9.2776230150637193      12.374669211658142      18.716280000000001
   156   1      9.2776230150637193      12.374669211658142      16.759930000000001
   157   1      9.2776230150637193      12.374669211658142      20.672630000000002
   158   3       5.565928071940025      11.136710240088409      18.716280000000001
   159   1      7.4217739623630417      11.755694469289766      18.716280000000001
   160   1       5.565928071940025      11.136710240088409      16.759930000000001
   161   1       5.565928071940025      11.136710240088409      20.672630000000002
   162   2      3.0911042768709693      12.373584550420706      16.759930000000001
   163   2      3.0911042768709693      12.373584550420706      20.672630000000002
   164   3       1.854229966538671      9.8987607553516508      18.716280000000001
   165   1      3.7100790192393482      10.517735497720029      18.716280000000001
   166   1       1.854229966538671      9.8987607553516508      16.759930000000001
   167   1      1.2352552241702932      11.754609808052328      18.716280000000001
   168   1       1.854229966538671      9.8987607553516508      20.672630000000002
   169   1  -0.0016190861620056388      9.2797860129832728      18.716280000000001
   170   2      11.752446810132774      11.137794901325845      16.759930000000001
   171   2      11.752446810132774      11.137794901325845      20.672630000000002
   172   3      10.515581986633453      8.6629742685344482      18.716280000000001
   173   1      12.371431039334132       9.281949010902828      18.716280000000001
   174   1      10.515581986633453      8.6629742685344482      16.759930000000001
   175   1      9.8965977574320974      10.518820158957467      18.716280000000001
   176   1      10.515581986633453      8.6629742685344482      20.672630000000002
   177   2      8.0407487047314188      9.8998454165890877      16.759930000000001
   178   2      8.0407487047314188      9.8998454165890877      20.672630000000002
   179   3       6.803877556676782      7.4250121346870532      18.716280000000001
   180   1      8.6597266093774579      8.0439868770554313      18.716280000000001
   181   1       6.803877556676782      7.4250121346870532      16.759930000000001
   182   1      6.1849028143084013        9.28086118738773      18.716280000000001
   183   1       6.803877556676782      7.4250121346870532      20.672630000000002
   184   2      4.3290537616077254       8.661886445019352      16.759930000000001
   185   2      4.3290537616077254       8.661886445019352      20.672630000000002
   186   3       3.092179451275427      6.1870626499502972      18.716280000000001
   187   1      4.9480285039761043      6.8060373923186761      18.716280000000001
   188   1       3.092179451275427      6.1870626499502972      16.759930000000001
   189   1      2.4732047089070495       8.042911702650974      18.716280000000001
   190   1       3.092179451275427      6.1870626499502972      20.672630000000002
   191   2     0.61735565620637212       7.423936960282596      16.759930000000001
   192   2     0.61735565620637212       7.423936960282596      20.672630000000002
   193   1        1.23633039857475      5.5680879075819201      18.716280000000001
   194   3       11.75353463364787      4.9512666763001159      18.716280000000001
   195   1       11.75353463364787      4.9512666763001159      16.759930000000001
   196   1      11.134556729001831      6.8071252158337723      18.716280000000001
   197   1       11.75353463364787      4.9512666763001159      20.672630000000002
   198   2      9.2787108385788173      6.1881409866324146      16.759930000000001
   199   2      9.2787108385788173      6.1881409866324146      20.672630000000002
   200   3      8.0418365282465167      3.7133171915633594      18.716280000000001
   201   1      9.8976855809471935      4.3322919339317378      18.716280000000001
   202   1      8.0418365282465167      3.7133171915633594      16.759930000000001
   203   1      7.4228617858781387      5.5691662442640366      18.716280000000001
   204   1      8.0418365282465167      3.7133171915633594      20.672630000000002
   205   2      5.5670127331774619      4.9501915018956586      16.759930000000001
   206   2      5.5670127331774619      4.9501915018956586      20.672630000000002
   207   3       4.330138422845164      2.4753677068266038      18.716280000000001
   208   1      6.1859874755458399      3.0943424491949818      18.716280000000001
   209   1       4.330138422845164      2.4753677068266038      16.759930000000001
   210   1      3.7111541936438046      4.3312135972496204      18.716280000000001
   211   1       4.330138422845164      2.4753677068266038      20.672630000000002
   212   2      1.8553051409431278      3.7122388548812424      16.759930000000001
   213   2      1.8553051409431278      3.7122388548812424      20.672630000000002
   214   3     0.61843083061082904      1.2374150598121876      18.716280000000001
   215   1      2.4742893701444864      1.8563929644582255      18.716280000000001
   216   1     0.61843083061082904      1.2374150598121876      16.759930000000001
   217   1 -0.00054391175754880028      3.0932641125128644      18.716280000000001
   218   1     0.61843083061082904      1.2374150598121876      20.672630000000002
   219   1       12.37250937601625      3.0954176235994386      18.716280000000001
   220   2      10.516660323315572       2.476442881231061      16.759930000000001
   221   2      10.516660323315572       2.476442881231061      20.672630000000002
   222   3      9.2797860129832745   0.0016190861620059692      18.716280000000001
   223   1       11.13563506568395     0.62059382853038347      18.716280000000001
   224   1      9.2797860129832745   0.0016190861620059692      16.759930000000001
   225   1      8.6608112706148948       1.857468138862683      18.716280000000001
   226   1      9.2797860129832745   0.0016190861620059692      20.672630000000002
   227   2       6.804962217914218       1.238493396494305      16.759930000000001
   228   2       6.804962217914218       1.238493396494305      20.672630000000002
   229   1      4.9491131652135412     0.61951865412592688      18.716280000000001
   230   2      3.0932641125128644  0.00054391175754878857      16.759930000000001
   231   2      3.0932641125128644  0.00054391175754878857      20.672630000000002
