(written by ASE)

525 atoms
3 atom types

0.0             19.56350655  xlo xhi
0.0             19.56350655  ylo yhi
0.0      61.803577947500003  zlo zhi

Masses

     1      15.998999995884349 # O
     2      87.619999977460253 # Sr
     3      47.866999987686484 # Ti

Atoms # atomic

     1   3      0.9781740000000001      2.9345320000000004      2.9345300000000001
     2   1      0.9781740000000001      2.9345320000000004     0.97818000000000005
     3   1      0.9781740000000001      2.9345320000000004      4.8908800000000001
     4   2      1.3694520000000001                0.195636     0.97818000000000005
     5   2      1.3694520000000001                0.195636      4.8908800000000001
     6   3      4.1083420000000004     0.58690599999999982      2.9345300000000001
     7   1      2.5432620000000004      1.7607159999999999      2.9345300000000001
     8   1      4.1083420000000004     0.58690599999999982     0.97818000000000005
     9   1      4.1083420000000004     0.58690599999999982      4.8908800000000001
    10   3     0.19563400000000039                8.412312      2.9345300000000001
    11   1     0.19563400000000039                8.412312     0.97818000000000005
    12   1     0.19563400000000039                8.412312      4.8908800000000001
    13   2     0.58690400000000054      5.6734220000000004     0.97818000000000005
    14   2     0.58690400000000054      5.6734220000000004      4.8908800000000001
    15   3      3.3257940000000006                6.064692      2.9345300000000001
    16   1      1.7607140000000006      7.2385020000000004      2.9345300000000001
    17   1      3.3257940000000006                6.064692     0.97818000000000005
    18   1      2.1519840000000006      4.4996119999999999      2.9345300000000001
    19   1      3.3257940000000006                6.064692      4.8908800000000001
    20   2      3.7170720000000008                3.325796     0.97818000000000005
    21   2      3.7170720000000008                3.325796      4.8908800000000001
    22   3      6.4559620000000013      3.7170659999999995      2.9345300000000001
    23   1      4.8908820000000004      4.8908759999999996      2.9345300000000001
    24   1      6.4559620000000013      3.7170659999999995     0.97818000000000005
    25   1      5.2821520000000008                2.151986      2.9345300000000001
    26   1      6.4559620000000013      3.7170659999999995      4.8908800000000001
    27   2      6.8472320000000009     0.97817599999999971     0.97818000000000005
    28   2      6.8472320000000009     0.97817599999999971      4.8908800000000001
    29   3      9.5861220000000014      1.3694459999999993      2.9345300000000001
    30   1      8.0210420000000013      2.5432559999999991      2.9345300000000001
    31   1      9.5861220000000014      1.3694459999999993     0.97818000000000005
    32   1      9.5861220000000014      1.3694459999999993      4.8908800000000001
    33   1      11.151202000000001     0.19563599999999887      2.9345300000000001
    34   3      2.5432540000000015      11.542472000000002      2.9345300000000001
    35   1     0.97817400000000154      12.716282000000001      2.9345300000000001
    36   1      2.5432540000000015      11.542472000000002     0.97818000000000005
    37   1      1.3694440000000008      9.9773920000000018      2.9345300000000001
    38   1      2.5432540000000015      11.542472000000002      4.8908800000000001
    39   2       2.934524000000001      8.8035820000000005     0.97818000000000005
    40   2       2.934524000000001      8.8035820000000005      4.8908800000000001
    41   3       5.673414000000002      9.1948520000000009      2.9345300000000001
    42   1       4.108334000000001      10.368662000000002      2.9345300000000001
    43   1       5.673414000000002      9.1948520000000009     0.97818000000000005
    44   1      4.4996040000000015      7.6297720000000009      2.9345300000000001
    45   1       5.673414000000002      9.1948520000000009      4.8908800000000001
    46   2      6.0646920000000009      6.4559560000000005     0.97818000000000005
    47   2      6.0646920000000009      6.4559560000000005      4.8908800000000001
    48   3      8.8035820000000022      6.8472260000000009      2.9345300000000001
    49   1      7.2385020000000013      8.0210360000000023      2.9345300000000001
    50   1      8.8035820000000022      6.8472260000000009     0.97818000000000005
    51   1      7.6297720000000018                5.282146      2.9345300000000001
    52   1      8.8035820000000022      6.8472260000000009      4.8908800000000001
    53   2      9.1948520000000009      4.1083360000000004     0.97818000000000005
    54   2      9.1948520000000009      4.1083360000000004      4.8908800000000001
    55   3      11.933742000000002      4.4996060000000009      2.9345300000000001
    56   1      10.368662000000002      5.6734160000000013      2.9345300000000001
    57   1      11.933742000000002      4.4996060000000009     0.97818000000000005
    58   1      10.759932000000001      2.9345260000000004      2.9345300000000001
    59   1      11.933742000000002      4.4996060000000009      4.8908800000000001
    60   2      12.325012000000001      1.7607159999999997     0.97818000000000005
    61   2      12.325012000000001      1.7607159999999997      4.8908800000000001
    62   3      15.063902000000002      2.1519860000000004      2.9345300000000001
    63   1      13.498822000000002      3.3257960000000009      2.9345300000000001
    64   1      15.063902000000002      2.1519860000000004     0.97818000000000005
    65   1      13.890092000000003     0.58690599999999937      2.9345300000000001
    66   1      15.063902000000002      2.1519860000000004      4.8908800000000001
    67   1      16.628982000000001     0.97817600000000082      2.9345300000000001
    68   3      1.7607140000000012      17.020251999999999      2.9345300000000001
    69   1     0.19563400000000067      18.194062000000002      2.9345300000000001
    70   1      1.7607140000000012      17.020251999999999     0.97818000000000005
    71   1     0.58690399999999976      15.455172000000001      2.9345300000000001
    72   1      1.7607140000000012      17.020251999999999      4.8908800000000001
    73   2      2.1519840000000001               14.281362     0.97818000000000005
    74   2      2.1519840000000001               14.281362      4.8908800000000001
    75   3      4.8908740000000011               14.672632      2.9345300000000001
    76   1      3.3257940000000015               15.846442      2.9345300000000001
    77   1      4.8908740000000011               14.672632     0.97818000000000005
    78   1      3.7170640000000001               13.107552      2.9345300000000001
    79   1      4.8908740000000011               14.672632      4.8908800000000001
    80   2      5.2821439999999997      11.933742000000001     0.97818000000000005
    81   2      5.2821439999999997      11.933742000000001      4.8908800000000001
    82   3       8.021034000000002      12.325011999999999      2.9345300000000001
    83   1      6.4559540000000011      13.498822000000001      2.9345300000000001
    84   1       8.021034000000002      12.325011999999999     0.97818000000000005
    85   1      6.8472240000000006      10.759931999999999      2.9345300000000001
    86   1       8.021034000000002      12.325011999999999      4.8908800000000001
    87   2                8.412312      9.5861160000000005     0.97818000000000005
    88   2                8.412312      9.5861160000000005      4.8908800000000001
    89   3      11.151202000000001      9.9773859999999992      2.9345300000000001
    90   1      9.5861220000000014      11.151196000000001      2.9345300000000001
    91   1      11.151202000000001      9.9773859999999992     0.97818000000000005
    92   1                9.977392      8.4123059999999992      2.9345300000000001
    93   1      11.151202000000001      9.9773859999999992      4.8908800000000001
    94   2               11.542472      7.2384959999999996     0.97818000000000005
    95   2               11.542472      7.2384959999999996      4.8908800000000001
    96   3      14.281362000000001      7.6297659999999992      2.9345300000000001
    97   1      12.716282000000001      8.8035759999999996      2.9345300000000001
    98   1      14.281362000000001      7.6297659999999992     0.97818000000000005
    99   1               13.107552      6.0646859999999991      2.9345300000000001
   100   1      14.281362000000001      7.6297659999999992      4.8908800000000001
   101   2               14.672632      4.8908759999999987     0.97818000000000005
   102   2               14.672632      4.8908759999999987      4.8908800000000001
   103   3      17.411522000000001      5.2821459999999982      2.9345300000000001
   104   1      15.846442000000001      6.4559559999999987      2.9345300000000001
   105   1      17.411522000000001      5.2821459999999982     0.97818000000000005
   106   1      16.237712000000002      3.7170659999999986      2.9345300000000001
   107   1      17.411522000000001      5.2821459999999982      4.8908800000000001
   108   2               17.802792      2.5432559999999991     0.97818000000000005
   109   2               17.802792      2.5432559999999991      4.8908800000000001
   110   1      18.976602000000003      4.1083359999999995      2.9345300000000001
   111   1      19.367872000000002      1.3694459999999986      2.9345300000000001
   112   1      2.9345240000000006      18.585332000000001      2.9345300000000001
   113   2      4.4996040000000015      17.411522000000001     0.97818000000000005
   114   2      4.4996040000000015      17.411522000000001      4.8908800000000001
   115   3      7.2384940000000002               17.802792      2.9345300000000001
   116   1      5.6734140000000011               18.976602      2.9345300000000001
   117   1      7.2384940000000002               17.802792     0.97818000000000005
   118   1      6.0646840000000006      16.237712000000002      2.9345300000000001
   119   1      7.2384940000000002               17.802792      4.8908800000000001
   120   2      7.6297640000000007      15.063902000000001     0.97818000000000005
   121   2      7.6297640000000007      15.063902000000001      4.8908800000000001
   122   3      10.368654000000001      15.455171999999999      2.9345300000000001
   123   1      8.8035740000000011      16.628982000000001      2.9345300000000001
   124   1      10.368654000000001      15.455171999999999     0.97818000000000005
   125   1      9.1948440000000016      13.890091999999999      2.9345300000000001
   126   1      10.368654000000001      15.455171999999999      4.8908800000000001
   127   2      10.759932000000001      12.716276000000001     0.97818000000000005
   128   2      10.759932000000001      12.716276000000001      4.8908800000000001
   129   3      13.498822000000001      13.107545999999999      2.9345300000000001
   130   1      11.933742000000001      14.281356000000001      2.9345300000000001
   131   1      13.498822000000001      13.107545999999999     0.97818000000000005
   132   1      12.325012000000001      11.542465999999999      2.9345300000000001
   133   1      13.498822000000001      13.107545999999999      4.8908800000000001
   134   2      13.890092000000001               10.368656     0.97818000000000005
   135   2      13.890092000000001               10.368656      4.8908800000000001
   136   3      16.628982000000001               10.759926      2.9345300000000001
   137   1      15.063902000000001               11.933736      2.9345300000000001
   138   1      16.628982000000001               10.759926     0.97818000000000005
   139   1      15.455172000000001      9.1948460000000001      2.9345300000000001
   140   1      16.628982000000001               10.759926      4.8908800000000001
   141   2      17.020252000000003      8.0210359999999987     0.97818000000000005
   142   2      17.020252000000003      8.0210359999999987      4.8908800000000001
   143   1      18.194062000000002      9.5861159999999987      2.9345300000000001
   144   1      18.585332000000001      6.8472259999999983      2.9345300000000001
   145   1      8.4123040000000024      19.367872000000002      2.9345300000000001
   146   2      9.9773840000000025      18.194062000000002     0.97818000000000005
   147   2      9.9773840000000025      18.194062000000002      4.8908800000000001
   148   3      12.716274000000002      18.585332000000001      2.9345300000000001
   149   1      12.716274000000002      18.585332000000001     0.97818000000000005
   150   1      11.542464000000002      17.020252000000003      2.9345300000000001
   151   1      12.716274000000002      18.585332000000001      4.8908800000000001
   152   2      13.107552000000002      15.846436000000002     0.97818000000000005
   153   2      13.107552000000002      15.846436000000002      4.8908800000000001
   154   3      15.846442000000001      16.237705999999999      2.9345300000000001
   155   1      14.281362000000001      17.411515999999999      2.9345300000000001
   156   1      15.846442000000001      16.237705999999999     0.97818000000000005
   157   1      14.672632000000002      14.672626000000001      2.9345300000000001
   158   1      15.846442000000001      16.237705999999999      4.8908800000000001
   159   2      16.237712000000002      13.498816000000001     0.97818000000000005
   160   2      16.237712000000002      13.498816000000001      4.8908800000000001
   161   3      18.976602000000003               13.890086      2.9345300000000001
   162   1      17.411522000000001               15.063896      2.9345300000000001
   163   1      18.976602000000003               13.890086     0.97818000000000005
   164   1      17.802792000000004      12.325006000000002      2.9345300000000001
   165   1      18.976602000000003               13.890086      4.8908800000000001
   166   2      19.367872000000002      11.151196000000001     0.97818000000000005
   167   2      19.367872000000002      11.151196000000001      4.8908800000000001
   168   2      15.455172000000003      18.976596000000001     0.97818000000000005
   169   2      15.455172000000003      18.976596000000001      4.8908800000000001
   170   3      18.194062000000002      19.367866000000003      2.9345300000000001
   171   1      18.194062000000002      19.367866000000003     0.97818000000000005
   172   1      17.020252000000003      17.802786000000001      2.9345300000000001
   173   1      18.194062000000002      19.367866000000003      4.8908800000000001
   174   2      18.585332000000005      16.628976000000002     0.97818000000000005
   175   2      18.585332000000005      16.628976000000002      4.8908800000000001
   176   2     0.97165400000000191      18.585671999999999      8.8690499999999997
   177   2     0.97165400000000191      18.585671999999999      12.781750000000001
   178   3      2.9286920000000025      16.630006000000002                 10.8254
   179   1      2.9280059999999994      18.586358000000001                 10.8254
   180   1      2.9286920000000025      16.630006000000002      8.8690499999999997
   181   1      0.9723400000000012                16.62932                 10.8254
   182   1      2.9286920000000025      16.630006000000002      12.781750000000001
   183   2     0.97302600000000228      14.672968000000001      8.8690499999999997
   184   2     0.97302600000000228      14.672968000000001      12.781750000000001
   185   3      2.9300700000000002      12.717310000000001                 10.8254
   186   1      2.9293779999999998      14.673654000000001                 10.8254
   187   1      2.9300700000000002      12.717310000000001      8.8690499999999997
   188   1     0.97371799999999986      12.716623999999999                 10.8254
   189   1      2.9300700000000002      12.717310000000001      12.781750000000001
   190   2     0.97440400000000016      10.760272000000001      8.8690499999999997
   191   2     0.97440400000000016      10.760272000000001      12.781750000000001
   192   3       2.931442000000001      8.8046059999999997                 10.8254
   193   1      2.9307560000000006               10.760958                 10.8254
   194   1       2.931442000000001      8.8046059999999997      8.8690499999999997
   195   1     0.97509000000000035      8.8039199999999997                 10.8254
   196   1       2.931442000000001      8.8046059999999997      12.781750000000001
   197   2     0.97577600000000009      6.8475680000000008      8.8690499999999997
   198   2     0.97577600000000009      6.8475680000000008      12.781750000000001
   199   3      2.9328060000000007      4.8919080000000008                 10.8254
   200   1      2.9321199999999998      6.8482599999999998                 10.8254
   201   1      2.9328060000000007      4.8919080000000008      8.8690499999999997
   202   1     0.97646200000000039      4.8912160000000009                 10.8254
   203   1      2.9328060000000007      4.8919080000000008      12.781750000000001
   204   2     0.97714800000000013      2.9348640000000001      8.8690499999999997
   205   2     0.97714800000000013      2.9348640000000001      12.781750000000001
   206   3      2.9341780000000002     0.97920400000000007                 10.8254
   207   1      2.9334920000000002      2.9355560000000001                 10.8254
   208   1      2.9341780000000002     0.97920400000000007      8.8690499999999997
   209   1      0.9778260000000002     0.97851800000000011                 10.8254
   210   1      2.9341780000000002     0.97920400000000007      12.781750000000001
   211   2      4.8843580000000006      18.587043999999999      8.8690499999999997
   212   2      4.8843580000000006      18.587043999999999      12.781750000000001
   213   3      6.8413879999999994      16.631384000000001                 10.8254
   214   1      6.8407100000000005      18.587730000000001                 10.8254
   215   1      6.8413879999999994      16.631384000000001      8.8690499999999997
   216   1      4.8850439999999997               16.630692                 10.8254
   217   1      6.8413879999999994      16.631384000000001      12.781750000000001
   218   2      4.8857300000000015      14.674339999999999      8.8690499999999997
   219   2      4.8857300000000015      14.674339999999999      12.781750000000001
   220   3       6.842760000000002      12.718680000000001                 10.8254
   221   1      6.8420740000000011               14.675032                 10.8254
   222   1       6.842760000000002      12.718680000000001      8.8690499999999997
   223   1      4.8864160000000014               12.717988                 10.8254
   224   1       6.842760000000002      12.718680000000001      12.781750000000001
   225   2      4.8871000000000002      10.761649999999999      8.8690499999999997
   226   2      4.8871000000000002      10.761649999999999      12.781750000000001
   227   3      6.8441380000000009      8.8059840000000005                 10.8254
   228   1       6.843452000000001      10.762336000000001                 10.8254
   229   1      6.8441380000000009      8.8059840000000005      8.8690499999999997
   230   1      4.8877860000000011      8.8052980000000005                 10.8254
   231   1      6.8441380000000009      8.8059840000000005      12.781750000000001
   232   2       4.888472000000001      6.8489460000000006      8.8690499999999997
   233   2       4.888472000000001      6.8489460000000006      12.781750000000001
   234   3      6.8455100000000009       4.893279999999999                 10.8254
   235   1      6.8448240000000009      6.8496320000000006                 10.8254
   236   1      6.8455100000000009       4.893279999999999      8.8690499999999997
   237   1       4.889158000000001      4.8925940000000008                 10.8254
   238   1      6.8455100000000009       4.893279999999999      12.781750000000001
   239   2      4.8898440000000001                2.936242      8.8690499999999997
   240   2      4.8898440000000001                2.936242      12.781750000000001
   241   3      6.8468820000000008     0.98057599999999978                 10.8254
   242   1      6.8461960000000008                2.936928                 10.8254
   243   1      6.8468820000000008     0.98057599999999978      8.8690499999999997
   244   1      4.8905300000000009     0.97988999999999982                 10.8254
   245   1      6.8468820000000008     0.98057599999999978      12.781750000000001
   246   2       8.797054000000001      18.588422000000001      8.8690499999999997
   247   2       8.797054000000001      18.588422000000001      12.781750000000001
   248   3      10.754092000000002      16.632756000000001                 10.8254
   249   1               10.753406               18.589108                 10.8254
   250   1      10.754092000000002      16.632756000000001      8.8690499999999997
   251   1       8.797740000000001      16.632069999999999                 10.8254
   252   1      10.754092000000002      16.632756000000001      12.781750000000001
   253   2       8.798426000000001      14.675718000000002      8.8690499999999997
   254   2       8.798426000000001      14.675718000000002      12.781750000000001
   255   3      10.755464000000002      12.720052000000001                 10.8254
   256   1      10.754778000000002               14.676404                 10.8254
   257   1      10.755464000000002      12.720052000000001      8.8690499999999997
   258   1      8.7991120000000009      12.719365999999999                 10.8254
   259   1      10.755464000000002      12.720052000000001      12.781750000000001
   260   2      8.7997980000000009               10.763014      8.8690499999999997
   261   2      8.7997980000000009               10.763014      12.781750000000001
   262   3      10.756842000000001      8.8073560000000004                 10.8254
   263   1      10.756150000000002      10.763700000000002                 10.8254
   264   1      10.756842000000001      8.8073560000000004      8.8690499999999997
   265   1      8.8004900000000017      8.8066700000000004                 10.8254
   266   1      10.756842000000001      8.8073560000000004      12.781750000000001
   267   2      8.8011760000000017      6.8503180000000006      8.8690499999999997
   268   2      8.8011760000000017      6.8503180000000006      12.781750000000001
   269   3      10.758214000000001      4.8946519999999989                 10.8254
   270   1      10.757528000000002      6.8510039999999996                 10.8254
   271   1      10.758214000000001      4.8946519999999989      8.8690499999999997
   272   1      8.8018619999999999      4.8939659999999998                 10.8254
   273   1      10.758214000000001      4.8946519999999989      12.781750000000001
   274   2      8.8025479999999998      2.9376139999999995      8.8690499999999997
   275   2      8.8025479999999998      2.9376139999999995      12.781750000000001
   276   3      10.759586000000001     0.98194800000000027                 10.8254
   277   1      10.758900000000001       2.938299999999999                 10.8254
   278   1      10.759586000000001     0.98194800000000027      8.8690499999999997
   279   1      8.8032340000000016     0.98126200000000019                 10.8254
   280   1      10.759586000000001     0.98194800000000027      12.781750000000001
   281   2      12.709758000000001      18.589794000000001      8.8690499999999997
   282   2      12.709758000000001      18.589794000000001      12.781750000000001
   283   3      14.666796000000003               16.634128                 10.8254
   284   1      14.666110000000002      18.590479999999999                 10.8254
   285   1      14.666796000000003               16.634128      8.8690499999999997
   286   1      12.710444000000001      16.633441999999999                 10.8254
   287   1      14.666796000000003               16.634128      12.781750000000001
   288   2      12.711130000000002                14.67709      8.8690499999999997
   289   2      12.711130000000002                14.67709      12.781750000000001
   290   3      14.668168000000003      12.721424000000001                 10.8254
   291   1      14.667482000000001               14.677776                 10.8254
   292   1      14.668168000000003      12.721424000000001      8.8690499999999997
   293   1      12.711816000000001      12.720738000000001                 10.8254
   294   1      14.668168000000003      12.721424000000001      12.781750000000001
   295   2      12.712502000000002               10.764386      8.8690499999999997
   296   2      12.712502000000002               10.764386      12.781750000000001
   297   3      14.669540000000001      8.8087199999999992                 10.8254
   298   1      14.668854000000001               10.765072                 10.8254
   299   1      14.669540000000001      8.8087199999999992      8.8690499999999997
   300   1      12.713188000000001       8.808034000000001                 10.8254
   301   1      14.669540000000001      8.8087199999999992      12.781750000000001
   302   2      12.713880000000001      6.8516900000000005      8.8690499999999997
   303   2      12.713880000000001      6.8516900000000005      12.781750000000001
   304   3      14.670918000000002      4.8960239999999997                 10.8254
   305   1      14.670232000000002      6.8523759999999996                 10.8254
   306   1      14.670918000000002      4.8960239999999997      8.8690499999999997
   307   1      12.714566000000001      4.8953379999999997                 10.8254
   308   1      14.670918000000002      4.8960239999999997      12.781750000000001
   309   2      12.715252000000001      2.9389859999999994      8.8690499999999997
   310   2      12.715252000000001      2.9389859999999994      12.781750000000001
   311   3      14.672282000000003     0.98332599999999892                 10.8254
   312   1      14.671604000000002      2.9396719999999985                 10.8254
   313   1      14.672282000000003     0.98332599999999892      8.8690499999999997
   314   1      12.715938000000001     0.98263399999999912                 10.8254
   315   1      14.672282000000003     0.98332599999999892      12.781750000000001
   316   2      16.622462000000002      18.591165999999998      8.8690499999999997
   317   2      16.622462000000002      18.591165999999998      12.781750000000001
   318   3      18.579500000000003                 16.6355                 10.8254
   319   1      18.578814000000001      18.591851999999999                 10.8254
   320   1      18.579500000000003                 16.6355      8.8690499999999997
   321   1               16.623148      16.634814000000002                 10.8254
   322   1      18.579500000000003                 16.6355      12.781750000000001
   323   2      16.623834000000002               14.678462      8.8690499999999997
   324   2      16.623834000000002               14.678462      12.781750000000001
   325   3      18.580872000000003      12.722795999999999                 10.8254
   326   1      18.580186000000001      14.679148000000001                 10.8254
   327   1      18.580872000000003      12.722795999999999      8.8690499999999997
   328   1      16.624520000000004      12.722109999999999                 10.8254
   329   1      18.580872000000003      12.722795999999999      12.781750000000001
   330   2      16.625206000000002      10.765758000000002      8.8690499999999997
   331   2      16.625206000000002      10.765758000000002      12.781750000000001
   332   3      18.582236000000002      8.8100980000000018                 10.8254
   333   1      18.581550000000004      10.766450000000001                 10.8254
   334   1      18.582236000000002      8.8100980000000018      8.8690499999999997
   335   1      16.625892000000004       8.809406000000001                 10.8254
   336   1      18.582236000000002      8.8100980000000018      12.781750000000001
   337   2      16.626584000000001      6.8530620000000004      8.8690499999999997
   338   2      16.626584000000001      6.8530620000000004      12.781750000000001
   339   3      18.583614000000001      4.8974019999999996                 10.8254
   340   1      18.582922000000003      6.8537460000000019                 10.8254
   341   1      18.583614000000001      4.8974019999999996      8.8690499999999997
   342   1      16.627262000000002      4.8967159999999987                 10.8254
   343   1      18.583614000000001      4.8974019999999996      12.781750000000001
   344   2               16.627948      2.9403639999999993      8.8690499999999997
   345   2               16.627948      2.9403639999999993      12.781750000000001
   346   3      18.584986000000001     0.98469799999999896                 10.8254
   347   1      18.584300000000002      2.9410500000000002                 10.8254
   348   1      18.584986000000001     0.98469799999999896      8.8690499999999997
   349   1      16.628634000000002     0.98401199999999978                 10.8254
   350   1      18.584986000000001     0.98469799999999896      12.781750000000001
   351   3      2.5400860000000014      17.803248000000004      18.716280000000001
   352   1      4.1049600000000002      18.977330000000002      18.716280000000001
   353   1      2.5400860000000014      17.803248000000004      16.759930000000001
   354   1      1.3659980000000014      19.368114000000002      18.716280000000001
   355   1      2.5400860000000014      17.803248000000004      20.672630000000002
   356   1     0.97521400000000114      16.629152000000001      18.716280000000001
   357   3               11.147748               19.369864      18.716280000000001
   358   1               11.147748               19.369864      16.759930000000001