(written by ASE)

189 atoms
3 atom types

0.0      12.373047943524554  xlo xhi
0.0      12.373047943524554  ylo yhi
0.0      61.803577947500003  zlo zhi

Masses

     1      15.998999995884349 # O
     2      87.619999977460253 # Sr
     3      47.866999987686484 # Ti

Atoms # atomic

     1   3      5.5678760349786884      1.2373075423717421      2.9345300000000001
     2   1      7.4238326051198102     0.61865535232470148      2.9345300000000001
     3   1      5.5678760349786884      1.2373075423717421     0.97818000000000005
     4   1      5.5678760349786884      1.2373075423717421      4.8908800000000001
     5   3      1.8559628946964428      2.4746119224658236      2.9345300000000001
     6   1      3.7119194648375657      1.8559597324187831      2.9345300000000001
     7   1      1.8559628946964428      2.4746119224658236     0.97818000000000005
     8   1      1.2373107046494021     0.61865535232470115      2.9345300000000001
     9   1      1.8559628946964428      2.4746119224658236      4.8908800000000001
    10   2      11.754397935449097      1.2373075423717419     0.97818000000000005
    11   2      11.754397935449097      1.2373075423717419      4.8908800000000001
    12   3      10.517093555355014      3.7119163025599056      2.9345300000000001
    13   1      10.517093555355014      3.7119163025599056     0.97818000000000005
    14   1      9.8984413653079741      1.8559597324187829      2.9345300000000001
    15   1      10.517093555355014      3.7119163025599056      4.8908800000000001
    16   2      8.0424847951668514      2.4746119224658236     0.97818000000000005
    17   2      8.0424847951668514      2.4746119224658236      4.8908800000000001
    18   3      6.8051804150727699      4.9492206826539871      2.9345300000000001
    19   1      8.6611369852138917      4.3305684926069468      2.9345300000000001
    20   1      6.8051804150727699      4.9492206826539871     0.97818000000000005
    21   1      6.1865282250257287      3.0932641125128644      2.9345300000000001
    22   1      6.8051804150727699      4.9492206826539871      4.8908800000000001
    23   2       4.330571654884606      3.7119163025599051     0.97818000000000005
    24   2       4.330571654884606      3.7119163025599051      4.8908800000000001
    25   3      3.0932672747905245      6.1865250627480686      2.9345300000000001
    26   1      4.9492238449316472      5.5678728727010283      2.9345300000000001
    27   1      3.0932672747905245      6.1865250627480686     0.97818000000000005
    28   1      2.4746150847434838      4.3305684926069459      2.9345300000000001
    29   1      3.0932672747905245      6.1865250627480686      4.8908800000000001
    30   2     0.61864902776938058      4.9492238449316472     0.97818000000000005
    31   2     0.61864902776938058      4.9492238449316472      4.8908800000000001
    32   1      1.2373012178164213      6.8051804150727699      2.9345300000000001
    33   3      11.754397935449097      7.4238294428421518      2.9345300000000001
    34   1      11.754397935449097      7.4238294428421518     0.97818000000000005
    35   1      11.135745745402057      5.5678728727010292      2.9345300000000001
    36   1      11.754397935449097      7.4238294428421518      4.8908800000000001
    37   2      9.2797891752609321      6.1865250627480703     0.97818000000000005
    38   2      9.2797891752609321      6.1865250627480703      4.8908800000000001
    39   3      8.0424847951668514      8.6611338229362342      2.9345300000000001
    40   1      9.8984413653079741      8.0424816328891922      2.9345300000000001
    41   1      8.0424847951668514      8.6611338229362342     0.97818000000000005
    42   1      7.4238326051198102      6.8051772527951107      2.9345300000000001
    43   1      8.0424847951668514      8.6611338229362342      4.8908800000000001
    44   2      5.5678760349786875      7.4238294428421518     0.97818000000000005
    45   2      5.5678760349786875      7.4238294428421518      4.8908800000000001
    46   3       4.330571654884606      9.8984382030303149      2.9345300000000001
    47   1      6.1865282250257287      9.2797860129832745      2.9345300000000001
    48   1       4.330571654884606      9.8984382030303149     0.97818000000000005
    49   1      3.7119194648375653      8.0424816328891922      2.9345300000000001
    50   1       4.330571654884606      9.8984382030303149      4.8908800000000001
    51   2      1.8559534078634621      8.6611369852138935     0.97818000000000005
    52   2      1.8559534078634621      8.6611369852138935      4.8908800000000001
    53   3     0.61864902776938069      11.135745745402057      2.9345300000000001
    54   1      2.4746055979105033      10.517093555355016      2.9345300000000001
    55   1     0.61864902776938069      11.135745745402057     0.97818000000000005
    56   1     0.61864902776938069      11.135745745402057      4.8908800000000001
    57   2      10.517093555355014      9.8984382030303131     0.97818000000000005
    58   2      10.517093555355014      9.8984382030303131      4.8908800000000001
    59   1      11.135745745402055      11.754394773171436      2.9345300000000001
    60   1      8.6611369852138917      10.517090393077355      2.9345300000000001
    61   2      6.8051804150727691      11.135742583124395     0.97818000000000005
    62   2      6.8051804150727691      11.135742583124395      4.8908800000000001
    63   1      4.9492238449316464      11.754394773171436      2.9345300000000001
    64   2      11.135954455727626     0.61479104902397552      8.8690499999999997
    65   2      11.135954455727626     0.61479104902397552      12.781750000000001
    66   3      8.6617789275789061      1.8529524063639622                 10.8254
    67   1      10.517950532600921      2.4709531672130085                 10.8254
    68   1      8.6617789275789061      1.8529524063639622      8.8690499999999997
    69   1      8.6617789275789061      1.8529524063639622      12.781750000000001
    70   3      4.9494293929795585     0.61693191099990963                 10.8254
    71   1      6.8056041602792323      1.2349421586819365                 10.8254
    72   1      4.9494293929795585     0.61693191099990963      8.8690499999999997
    73   1      4.9494293929795585     0.61693191099990963      12.781750000000001
    74   3      11.138104804536541      6.8013129494943847                 10.8254
    75   1      11.138104804536541      6.8013129494943847      8.8690499999999997
    76   1      11.756115052218568      4.9451381821947091                 10.8254
    77   1      11.138104804536541      6.8013129494943847      12.781750000000001
    78   2      9.8999402849188947      4.3271279345126832      8.8690499999999997
    79   2      9.8999402849188947      4.3271279345126832      12.781750000000001
    80   3      7.4257647567701728      5.5652892918526708                 10.8254
    81   1      9.2819300372368669      6.1833027018123561                 10.8254
    82   1      7.4257647567701728      5.5652892918526708      8.8690499999999997
    83   1      8.0437655176192191      3.7091176868306559                 10.8254
    84   1      7.4257647567701728      5.5652892918526708      12.781750000000001
    85   2      6.1875939125972055        3.09111692598161      8.8690499999999997
    86   2      6.1875939125972055        3.09111692598161      12.781750000000001
    87   3      3.7134183844484854      4.3292782833215968                 10.8254
    88   1      5.5695931517481592      4.9472885310036245                 10.8254
    89   1      3.7134183844484854      4.3292782833215968      8.8690499999999997
    90   1      4.3314286321305122      2.4731035160219235                 10.8254
    91   1      3.7134183844484854      4.3292782833215968      12.781750000000001
    92   2       2.475253864830838      1.8550932683398969      8.8690499999999997
    93   2       2.475253864830838      1.8550932683398969      12.781750000000001
    94   1      1.8572436171488109      3.7112680356395713                 10.8254
    95   1     0.61908225980882381      1.2370925074908505                 10.8254
    96   3      9.9020906337278074      10.513649834983092                 10.8254
    97   1      11.758265401027483      11.131660082665119                 10.8254
    98   1      9.9020906337278074      10.513649834983092      8.8690499999999997
    99   1      10.520100881409835       8.657475067683416                 10.8254
   100   1      9.9020906337278074      10.513649834983092      12.781750000000001
   101   2      8.6639292763878206      8.0394743068343715      8.8690499999999997
   102   2      8.6639292763878206      8.0394743068343715      12.781750000000001
   103   3        6.18974426140612      9.2776388264520175                 10.8254
   104   1      8.0459190287057947       9.895649074134047                 10.8254
   105   1        6.18974426140612      9.2776388264520175      8.8690499999999997
   106   1      6.8077545090881468      7.4214640591523446                 10.8254
   107   1        6.18974426140612      9.2776388264520175      12.781750000000001
   108   2      4.9515797417884722      6.8034538114703169      8.8690499999999997
   109   2      4.9515797417884722      6.8034538114703169      12.781750000000001
   110   3      2.4774073759174122       8.041624655643286                 10.8254
   111   1      4.3335694941064453      8.6596285787699916                 10.8254
   112   1      2.4774073759174122       8.041624655643286      8.8690499999999997
   113   1      3.0954081367664585      6.1854530506212724                 10.8254
   114   1      2.4774073759174122       8.041624655643286      12.781750000000001
   115   2      1.2392428562997646      5.5674396406615845      8.8690499999999997
   116   2      1.2392428562997646      5.5674396406615845      12.781750000000001
   117   1     0.62123260861773821      7.4236144079612592                 10.8254
   118   2      7.4279056187461068      11.751814354600739      8.8690499999999997
   119   2      7.4279056187461068      11.751814354600739      12.781750000000001
   120   1      5.5717435005570737      11.133810431474034                 10.8254
   121   2      3.7155687332573994      10.515800183792006      8.8690499999999997
   122   2      3.7155687332573994      10.515800183792006      12.781750000000001
   123   3      1.2413837182756986      11.753964703409654                 10.8254
   124   1      1.2413837182756986      11.753964703409654      8.8690499999999997
   125   1       1.859393965957725      9.8977899361099784                 10.8254
   126   1      1.2413837182756986      11.753964703409654      12.781750000000001
   127   2      11.756314275711159      11.133712400866568      16.759930000000001
   128   2      11.756314275711159      11.133712400866568      20.672630000000002
   129   3      10.518586150410615      8.6593186755592946      18.716280000000001
   130   1       9.900253350407251      10.515379600863206      18.716280000000001
   131   1      10.518586150410615      8.6593186755592946      16.759930000000001
   132   1      10.518586150410615      8.6593186755592946      20.672630000000002
   133   3      11.755248588139681      4.9471873381184999      18.716280000000001
   134   1      11.136915788136319      6.8032482634224083      18.716280000000001
   135   1      11.755248588139681      4.9471873381184999      16.759930000000001
   136   1      11.755248588139681      4.9471873381184999      20.672630000000002
   137   3      5.5697892129630899      11.134778088438045      18.716280000000001
   138   1      5.5697892129630899      11.134778088438045      16.759930000000001
   139   1       7.425859625099978      11.753107726163748      18.716280000000001
   140   1      5.5697892129630899      11.134778088438045      20.672630000000002
   141   2      8.0441924251033416      9.8970468008598402      16.759930000000001
   142   2      8.0441924251033416      9.8970468008598402      20.672630000000002
   143   3      6.8064548129698172      7.4226562378302301      18.716280000000001
   144   1      6.1881220129664536      9.2787171631341376      18.716280000000001
   145   1      6.8064548129698172      7.4226562378302301      16.759930000000001
   146   1      8.6625252251067053      8.0409858755559327      18.716280000000001
   147   1      6.8064548129698172      7.4226562378302301      20.672630000000002
   148   2      9.2808548628324097      6.1849154634190455      16.759930000000001
   149   2      9.2808548628324097      6.1849154634190455      20.672630000000002
   150   3      8.0431172506988844      3.7105249003894318      18.716280000000001
   151   1      7.4247844506955207      5.5665858256933394      18.716280000000001
   152   1      8.0431172506988844      3.7105249003894318      16.759930000000001
   153   1      9.8991876628357733      4.3288545381151353      18.716280000000001
   154   1      8.0431172506988844      3.7105249003894318      20.672630000000002
   155   2      10.517520462839139      2.4727936128112264      16.759930000000001
   156   2      10.517520462839139      2.4727936128112264      20.672630000000002
   157   1      8.6614500507022498      1.8544639750855232      18.716280000000001
   158   1      11.135853262842502     0.61673268750731947      18.716280000000001
   159   3      1.8576673623552733      9.8981124884313179      18.716280000000001
   160   1      1.2393377246295696      11.754182900568205      18.716280000000001
   161   1      1.8576673623552733      9.8981124884313179      16.759930000000001
   162   1      3.7137282876591815      10.516445288434682      18.716280000000001
   163   1      1.8576673623552733      9.8981124884313179      20.672630000000002
   164   2      4.3320610876625452      8.6603843631307722      16.759930000000001
   165   2      4.3320610876625452      8.6603843631307722      20.672630000000002
   166   3      3.0943329623620013      6.1859906378235001      18.716280000000001
   167   1      2.4760001623586376      8.0420515631274085      18.716280000000001
   168   1      3.0943329623620013      6.1859906378235001      16.759930000000001
   169   1      4.9503938876659088      6.8043234378268638      18.716280000000001
   170   1      3.0943329623620013      6.1859906378235001      20.672630000000002
   171   2      5.5687235253916132      4.9482530256899757      16.759930000000001
   172   2      5.5687235253916132      4.9482530256899757      20.672630000000002
   173   3      4.3309954000910684      2.4738593003827036      18.716280000000001
   174   1      3.7126626000877048      4.3299202256866121      18.716280000000001
   175   1      4.3309954000910684      2.4738593003827036      16.759930000000001
   176   1      6.1870563253949777      3.0921921003860677      18.716280000000001
   177   1      4.3309954000910684      2.4738593003827036      20.672630000000002
   178   2      6.8053891253983414      1.2361311750821595      16.759930000000001
   179   2      6.8053891253983414      1.2361311750821595      20.672630000000002
   180   1       4.949328200094433     0.61779837507879531      18.716280000000001
   181   2     0.61992975022174857      7.4237219254017051      16.759930000000001
   182   2     0.61992975022174857      7.4237219254017051      20.672630000000002
   183   1      1.2382625502251126      5.5676610000977966      18.716280000000001
   184   2      1.8565921879508163      3.7115905879609081      16.759930000000001
   185   2      1.8565921879508163      3.7115905879609081      20.672630000000002
   186   3     0.61886406265027205       1.237196862653636      18.716280000000001
   187   1     0.61886406265027205       1.237196862653636      16.759930000000001
   188   1      2.4749249879541804      1.8555296626569997      18.716280000000001
   189   1     0.61886406265027205       1.237196862653636      20.672630000000002
