(written by ASE)

525 atoms
3 atom types

0.0             19.56350655  xlo xhi
0.0             19.56350655  ylo yhi
0.0      61.803577947500003  zlo zhi

Masses

     1      15.998999995884349 # O
     2      87.619999977460253 # Sr
     3      47.866999987686484 # Ti

Atoms # atomic

     1   3      17.020252000000003      17.802786000000001      2.9345300000000001
     2   1      15.455172000000003      18.976596000000001      2.9345300000000001
     3   1      17.020252000000003      17.802786000000001     0.97818000000000005
     4   1      18.194062000000002      19.367866000000003      2.9345300000000001
     5   1      17.020252000000003      17.802786000000001      4.8908800000000001
     6   1      18.585332000000005      16.628976000000002      2.9345300000000001
     7   3      8.4123040000000024      19.367872000000002      2.9345300000000001
     8   1      8.4123040000000024      19.367872000000002     0.97818000000000005
     9   1      8.4123040000000024      19.367872000000002      4.8908800000000001
    10   3      11.542464000000002      17.020252000000003      2.9345300000000001
    11   1      9.9773840000000025      18.194062000000002      2.9345300000000001
    12   1      11.542464000000002      17.020252000000003     0.97818000000000005
    13   1      12.716274000000002      18.585332000000001      2.9345300000000001
    14   1      11.542464000000002      17.020252000000003      4.8908800000000001
    15   2      14.281362000000001      17.411515999999999     0.97818000000000005
    16   2      14.281362000000001      17.411515999999999      4.8908800000000001
    17   3      14.672632000000002      14.672626000000001      2.9345300000000001
    18   1      13.107552000000002      15.846436000000002      2.9345300000000001
    19   1      14.672632000000002      14.672626000000001     0.97818000000000005
    20   1      15.846442000000001      16.237705999999999      2.9345300000000001
    21   1      14.672632000000002      14.672626000000001      4.8908800000000001
    22   2      17.411522000000001               15.063896     0.97818000000000005
    23   2      17.411522000000001               15.063896      4.8908800000000001
    24   3      17.802792000000004      12.325006000000002      2.9345300000000001
    25   1      16.237712000000002      13.498816000000001      2.9345300000000001
    26   1      17.802792000000004      12.325006000000002     0.97818000000000005
    27   1      18.976602000000003               13.890086      2.9345300000000001
    28   1      17.802792000000004      12.325006000000002      4.8908800000000001
    29   1      19.367872000000002      11.151196000000001      2.9345300000000001
    30   3      2.9345240000000006      18.585332000000001      2.9345300000000001
    31   1      2.9345240000000006      18.585332000000001     0.97818000000000005
    32   1      2.9345240000000006      18.585332000000001      4.8908800000000001
    33   2      5.6734140000000011               18.976602     0.97818000000000005
    34   2      5.6734140000000011               18.976602      4.8908800000000001
    35   3      6.0646840000000006      16.237712000000002      2.9345300000000001
    36   1      4.4996040000000015      17.411522000000001      2.9345300000000001
    37   1      6.0646840000000006      16.237712000000002     0.97818000000000005
    38   1      7.2384940000000002               17.802792      2.9345300000000001
    39   1      6.0646840000000006      16.237712000000002      4.8908800000000001
    40   2      8.8035740000000011      16.628982000000001     0.97818000000000005
    41   2      8.8035740000000011      16.628982000000001      4.8908800000000001
    42   3      9.1948440000000016      13.890091999999999      2.9345300000000001
    43   1      7.6297640000000007      15.063902000000001      2.9345300000000001
    44   1      9.1948440000000016      13.890091999999999     0.97818000000000005
    45   1      10.368654000000001      15.455171999999999      2.9345300000000001
    46   1      9.1948440000000016      13.890091999999999      4.8908800000000001
    47   2      11.933742000000001      14.281356000000001     0.97818000000000005
    48   2      11.933742000000001      14.281356000000001      4.8908800000000001
    49   3      12.325012000000001      11.542465999999999      2.9345300000000001
    50   1      10.759932000000001      12.716276000000001      2.9345300000000001
    51   1      12.325012000000001      11.542465999999999     0.97818000000000005
    52   1      13.498822000000001      13.107545999999999      2.9345300000000001
    53   1      12.325012000000001      11.542465999999999      4.8908800000000001
    54   2      15.063902000000001               11.933736     0.97818000000000005
    55   2      15.063902000000001               11.933736      4.8908800000000001
    56   3      15.455172000000001      9.1948460000000001      2.9345300000000001
    57   1      13.890092000000001               10.368656      2.9345300000000001
    58   1      15.455172000000001      9.1948460000000001     0.97818000000000005
    59   1      16.628982000000001               10.759926      2.9345300000000001
    60   1      15.455172000000001      9.1948460000000001      4.8908800000000001
    61   2      18.194062000000002      9.5861159999999987     0.97818000000000005
    62   2      18.194062000000002      9.5861159999999987      4.8908800000000001
    63   3      18.585332000000001      6.8472259999999983      2.9345300000000001
    64   1      17.020252000000003      8.0210359999999987      2.9345300000000001
    65   1      18.585332000000001      6.8472259999999983     0.97818000000000005
    66   1      18.585332000000001      6.8472259999999983      4.8908800000000001
    67   2     0.19563400000000067      18.194062000000002     0.97818000000000005
    68   2     0.19563400000000067      18.194062000000002      4.8908800000000001
    69   3     0.58690399999999976      15.455172000000001      2.9345300000000001
    70   1     0.58690399999999976      15.455172000000001     0.97818000000000005
    71   1      1.7607140000000012      17.020251999999999      2.9345300000000001
    72   1     0.58690399999999976      15.455172000000001      4.8908800000000001
    73   2      3.3257940000000015               15.846442     0.97818000000000005
    74   2      3.3257940000000015               15.846442      4.8908800000000001
    75   3      3.7170640000000001               13.107552      2.9345300000000001
    76   1      2.1519840000000001               14.281362      2.9345300000000001
    77   1      3.7170640000000001               13.107552     0.97818000000000005
    78   1      4.8908740000000011               14.672632      2.9345300000000001
    79   1      3.7170640000000001               13.107552      4.8908800000000001
    80   2      6.4559540000000011      13.498822000000001     0.97818000000000005
    81   2      6.4559540000000011      13.498822000000001      4.8908800000000001
    82   3      6.8472240000000006      10.759931999999999      2.9345300000000001
    83   1      5.2821439999999997      11.933742000000001      2.9345300000000001
    84   1      6.8472240000000006      10.759931999999999     0.97818000000000005
    85   1       8.021034000000002      12.325011999999999      2.9345300000000001
    86   1      6.8472240000000006      10.759931999999999      4.8908800000000001
    87   2      9.5861220000000014      11.151196000000001     0.97818000000000005
    88   2      9.5861220000000014      11.151196000000001      4.8908800000000001
    89   3                9.977392      8.4123059999999992      2.9345300000000001
    90   1                8.412312      9.5861160000000005      2.9345300000000001
    91   1                9.977392      8.4123059999999992     0.97818000000000005
    92   1      11.151202000000001      9.9773859999999992      2.9345300000000001
    93   1                9.977392      8.4123059999999992      4.8908800000000001
    94   2      12.716282000000001      8.8035759999999996     0.97818000000000005
    95   2      12.716282000000001      8.8035759999999996      4.8908800000000001
    96   3               13.107552      6.0646859999999991      2.9345300000000001
    97   1               11.542472      7.2384959999999996      2.9345300000000001
    98   1               13.107552      6.0646859999999991     0.97818000000000005
    99   1      14.281362000000001      7.6297659999999992      2.9345300000000001
   100   1               13.107552      6.0646859999999991      4.8908800000000001
   101   2      15.846442000000001      6.4559559999999987     0.97818000000000005
   102   2      15.846442000000001      6.4559559999999987      4.8908800000000001
   103   3      16.237712000000002      3.7170659999999986      2.9345300000000001
   104   1               14.672632      4.8908759999999987      2.9345300000000001
   105   1      16.237712000000002      3.7170659999999986     0.97818000000000005
   106   1      17.411522000000001      5.2821459999999982      2.9345300000000001
   107   1      16.237712000000002      3.7170659999999986      4.8908800000000001
   108   2      18.976602000000003      4.1083359999999995     0.97818000000000005
   109   2      18.976602000000003      4.1083359999999995      4.8908800000000001
   110   3      19.367872000000002      1.3694459999999986      2.9345300000000001
   111   1               17.802792      2.5432559999999991      2.9345300000000001
   112   1      19.367872000000002      1.3694459999999986     0.97818000000000005
   113   1      19.367872000000002      1.3694459999999986      4.8908800000000001
   114   2     0.97817400000000154      12.716282000000001     0.97818000000000005
   115   2     0.97817400000000154      12.716282000000001      4.8908800000000001
   116   3      1.3694440000000008      9.9773920000000018      2.9345300000000001
   117   1      1.3694440000000008      9.9773920000000018     0.97818000000000005
   118   1      2.5432540000000015      11.542472000000002      2.9345300000000001
   119   1      1.3694440000000008      9.9773920000000018      4.8908800000000001
   120   2       4.108334000000001      10.368662000000002     0.97818000000000005
   121   2       4.108334000000001      10.368662000000002      4.8908800000000001
   122   3      4.4996040000000015      7.6297720000000009      2.9345300000000001
   123   1       2.934524000000001      8.8035820000000005      2.9345300000000001
   124   1      4.4996040000000015      7.6297720000000009     0.97818000000000005
   125   1       5.673414000000002      9.1948520000000009      2.9345300000000001
   126   1      4.4996040000000015      7.6297720000000009      4.8908800000000001
   127   2      7.2385020000000013      8.0210360000000023     0.97818000000000005
   128   2      7.2385020000000013      8.0210360000000023      4.8908800000000001
   129   3      7.6297720000000018                5.282146      2.9345300000000001
   130   1      6.0646920000000009      6.4559560000000005      2.9345300000000001
   131   1      7.6297720000000018                5.282146     0.97818000000000005
   132   1      8.8035820000000022      6.8472260000000009      2.9345300000000001
   133   1      7.6297720000000018                5.282146      4.8908800000000001
   134   2      10.368662000000002      5.6734160000000013     0.97818000000000005
   135   2      10.368662000000002      5.6734160000000013      4.8908800000000001
   136   3      10.759932000000001      2.9345260000000004      2.9345300000000001
   137   1      9.1948520000000009      4.1083360000000004      2.9345300000000001
   138   1      10.759932000000001      2.9345260000000004     0.97818000000000005
   139   1      11.933742000000002      4.4996060000000009      2.9345300000000001
   140   1      10.759932000000001      2.9345260000000004      4.8908800000000001
   141   2      13.498822000000002      3.3257960000000009     0.97818000000000005
   142   2      13.498822000000002      3.3257960000000009      4.8908800000000001
   143   3      13.890092000000003     0.58690599999999937      2.9345300000000001
   144   1      12.325012000000001      1.7607159999999997      2.9345300000000001
   145   1      13.890092000000003     0.58690599999999937     0.97818000000000005
   146   1      15.063902000000002      2.1519860000000004      2.9345300000000001
   147   1      13.890092000000003     0.58690599999999937      4.8908800000000001
   148   2      16.628982000000001     0.97817600000000082     0.97818000000000005
   149   2      16.628982000000001     0.97817600000000082      4.8908800000000001
   150   1     0.19563400000000039                8.412312      2.9345300000000001
   151   2      1.7607140000000006      7.2385020000000004     0.97818000000000005
   152   2      1.7607140000000006      7.2385020000000004      4.8908800000000001
   153   3      2.1519840000000006      4.4996119999999999      2.9345300000000001
   154   1     0.58690400000000054      5.6734220000000004      2.9345300000000001
   155   1      2.1519840000000006      4.4996119999999999     0.97818000000000005
   156   1      3.3257940000000006                6.064692      2.9345300000000001
   157   1      2.1519840000000006      4.4996119999999999      4.8908800000000001
   158   2      4.8908820000000004      4.8908759999999996     0.97818000000000005
   159   2      4.8908820000000004      4.8908759999999996      4.8908800000000001
   160   3      5.2821520000000008                2.151986      2.9345300000000001
   161   1      3.7170720000000008                3.325796      2.9345300000000001
   162   1      5.2821520000000008                2.151986     0.97818000000000005
   163   1      6.4559620000000013      3.7170659999999995      2.9345300000000001
   164   1      5.2821520000000008                2.151986      4.8908800000000001
   165   2      8.0210420000000013      2.5432559999999991     0.97818000000000005
   166   2      8.0210420000000013      2.5432559999999991      4.8908800000000001
   167   1      6.8472320000000009     0.97817599999999971      2.9345300000000001
   168   1      9.5861220000000014      1.3694459999999993      2.9345300000000001
   169   2      11.151202000000001     0.19563599999999887     0.97818000000000005
   170   2      11.151202000000001     0.19563599999999887      4.8908800000000001
   171   1      0.9781740000000001      2.9345320000000004      2.9345300000000001
   172   2      2.5432620000000004      1.7607159999999999     0.97818000000000005
   173   2      2.5432620000000004      1.7607159999999999      4.8908800000000001
   174   1      1.3694520000000001                0.195636      2.9345300000000001
   175   1      4.1083420000000004     0.58690599999999982      2.9345300000000001
   176   2     0.97749000000000119      18.585370000000001      8.8690499999999997
   177   2     0.97749000000000119      18.585370000000001      12.781750000000001
   178   3      2.9339160000000009      16.629088000000003                 10.8254
   179   1     0.97756199999999893      16.629016000000004                 10.8254
   180   1      2.9339160000000009      16.629088000000003      8.8690499999999997
   181   1      2.9338440000000006      18.585442000000004                 10.8254
   182   1      2.9339160000000009      16.629088000000003      12.781750000000001
   183   2      4.8901980000000016               18.585514      8.8690499999999997
   184   2      4.8901980000000016               18.585514      12.781750000000001
   185   3                6.846616      16.629238000000001                 10.8254
   186   1      4.8902700000000028      16.629160000000002                 10.8254
   187   1                6.846616      16.629238000000001      8.8690499999999997
   188   1      6.8465460000000009      18.585577999999998                 10.8254
   189   1                6.846616      16.629238000000001      12.781750000000001
   190   2      8.8028920000000017               18.585656      8.8690499999999997
   191   2      8.8028920000000017               18.585656      12.781750000000001
   192   3      10.759318000000002      16.629374000000002                 10.8254
   193   1      8.8029640000000029      16.629301999999999                 10.8254
   194   1      10.759318000000002      16.629374000000002      8.8690499999999997
   195   1      10.759246000000001               18.585728                 10.8254
   196   1      10.759318000000002      16.629374000000002      12.781750000000001
   197   2      12.715600000000002      18.585799999999999      8.8690499999999997
   198   2      12.715600000000002      18.585799999999999      12.781750000000001
   199   3      14.672018000000001               16.629524                 10.8254
   200   1      12.715672000000003      16.629446000000002                 10.8254
   201   1      14.672018000000001               16.629524      8.8690499999999997
   202   1      14.671948000000002      18.585863999999997                 10.8254
   203   1      14.672018000000001               16.629524      12.781750000000001
   204   2      16.628294000000004      18.585941999999999      8.8690499999999997
   205   2      16.628294000000004      18.585941999999999      12.781750000000001
   206   3      18.584720000000004      16.629660000000001                 10.8254
   207   1      16.628366000000003      16.629588000000002                 10.8254
   208   1      18.584720000000004      16.629660000000001      8.8690499999999997
   209   1      18.584648000000001      18.586013999999999                 10.8254
   210   1      18.584720000000004      16.629660000000001      12.781750000000001
   211   2     0.97763400000000067      14.672662000000001      8.8690499999999997
   212   2     0.97763400000000067      14.672662000000001      12.781750000000001
   213   3       2.934066000000001      12.716388000000002                 10.8254
   214   1     0.97771199999999991      12.716316000000001                 10.8254
   215   1       2.934066000000001      12.716388000000002      8.8690499999999997
   216   1      2.9339880000000007      14.672734000000002                 10.8254
   217   1       2.934066000000001      12.716388000000002      12.781750000000001
   218   2      4.8903340000000002      14.672812000000002      8.8690499999999997
   219   2      4.8903340000000002      14.672812000000002      12.781750000000001
   220   3      6.8467600000000024      12.716530000000001                 10.8254
   221   1      4.8904060000000005      12.716458000000001                 10.8254
   222   1      6.8467600000000024      12.716530000000001      8.8690499999999997
   223   1      6.8466880000000021               14.672884                 10.8254
   224   1      6.8467600000000024      12.716530000000001      12.781750000000001
   225   2      8.8030420000000014      14.672955999999999      8.8690499999999997
   226   2      8.8030420000000014      14.672955999999999      12.781750000000001
   227   3      10.759468000000002      12.716674000000001                 10.8254
   228   1      8.8031140000000008               12.716602                 10.8254
   229   1      10.759468000000002      12.716674000000001      8.8690499999999997
   230   1      10.759390000000002      14.673020000000001                 10.8254
   231   1      10.759468000000002      12.716674000000001      12.781750000000001
   232   2      12.715736000000003      14.673098000000003      8.8690499999999997
   233   2      12.715736000000003      14.673098000000003      12.781750000000001
   234   3      14.672162000000002               12.716816                 10.8254
   235   1      12.715807999999999      12.716743999999998                 10.8254
   236   1      14.672162000000002               12.716816      8.8690499999999997
   237   1      14.672090000000001      14.673169999999999                 10.8254
   238   1      14.672162000000002               12.716816      12.781750000000001
   239   2      16.628444000000002      14.673241999999998      8.8690499999999997
   240   2      16.628444000000002      14.673241999999998      12.781750000000001
   241   3      18.584862000000001      12.716966000000001                 10.8254
   242   1      16.628516000000001      12.716887999999999                 10.8254
   243   1      18.584862000000001      12.716966000000001      8.8690499999999997
   244   1      18.584798000000003      14.673314000000001                 10.8254
   245   1      18.584862000000001      12.716966000000001      12.781750000000001
   246   2      0.9777840000000001      10.759962000000002      8.8690499999999997
   247   2      0.9777840000000001      10.759962000000002      12.781750000000001
   248   3      2.9342020000000009      8.8036860000000008                 10.8254
   249   1     0.97784800000000049      8.8036140000000014                 10.8254
   250   1      2.9342020000000009      8.8036860000000008      8.8690499999999997
   251   1      2.9341300000000015      10.760040000000002                 10.8254
   252   1      2.9342020000000009      8.8036860000000008      12.781750000000001
   253   2      4.8904840000000007      10.760112000000001      8.8690499999999997
   254   2      4.8904840000000007      10.760112000000001      12.781750000000001
   255   3      6.8469100000000012      8.8038299999999996                 10.8254
   256   1       4.890556000000001      8.8037580000000002                 10.8254
   257   1      6.8469100000000012      8.8038299999999996      8.8690499999999997
   258   1      6.8468320000000018      10.760176000000001                 10.8254
   259   1      6.8469100000000012      8.8038299999999996      12.781750000000001
   260   2       8.803186000000002      10.760248000000001      8.8690499999999997
   261   2       8.803186000000002      10.760248000000001      12.781750000000001
   262   3      10.759604000000001      8.8039719999999999                 10.8254
   263   1      8.8032500000000002      8.8039000000000005                 10.8254
   264   1      10.759604000000001      8.8039719999999999      8.8690499999999997
   265   1      10.759532000000002      10.760326000000001                 10.8254
   266   1      10.759604000000001      8.8039719999999999      12.781750000000001
   267   2      12.715886000000003      10.760398000000002      8.8690499999999997
   268   2      12.715886000000003      10.760398000000002      12.781750000000001
   269   3               14.672312      8.8041159999999987                 10.8254
   270   1      12.715958000000001      8.8040439999999993                 10.8254
   271   1               14.672312      8.8041159999999987      8.8690499999999997
   272   1      14.672234000000001               10.760462                 10.8254
   273   1               14.672312      8.8041159999999987      12.781750000000001
   274   2      16.628588000000001      10.760534000000002      8.8690499999999997
   275   2      16.628588000000001      10.760534000000002      12.781750000000001
   276   3      18.585006000000003      8.8042580000000026                 10.8254
   277   1      16.628658000000001      8.8041940000000007                 10.8254
   278   1      18.585006000000003      8.8042580000000026      8.8690499999999997
   279   1      18.584934000000004      10.760612000000002                 10.8254
   280   1      18.585006000000003      8.8042580000000026      12.781750000000001
   281   2     0.97792000000000034      6.8472600000000012      8.8690499999999997
   282   2     0.97792000000000034      6.8472600000000012      12.781750000000001
   283   3      2.9343520000000005      4.8909860000000007                 10.8254
   284   1     0.97799800000000037      4.8909140000000004                 10.8254
   285   1      2.9343520000000005      4.8909860000000007      8.8690499999999997
   286   1      2.9342740000000007      6.8473320000000006                 10.8254
   287   1      2.9343520000000005      4.8909860000000007      12.781750000000001
   288   2      4.8906280000000004                6.847404      8.8690499999999997
   289   2      4.8906280000000004                6.847404      12.781750000000001
   290   3      6.8470459999999997      4.8911279999999993                 10.8254
   291   1      4.8906920000000005      4.8910560000000007                 10.8254
   292   1      6.8470459999999997      4.8911279999999993      8.8690499999999997
   293   1      6.8469740000000003      6.8474819999999994                 10.8254
   294   1      6.8470459999999997      4.8911279999999993      12.781750000000001
   295   2      8.8033280000000005      6.8475539999999997      8.8690499999999997
   296   2      8.8033280000000005      6.8475539999999997      12.781750000000001
   297   3      10.759754000000001      4.8912719999999981                 10.8254
   298   1      8.8034000000000017      4.8912000000000004                 10.8254
   299   1      10.759754000000001      4.8912719999999981      8.8690499999999997
   300   1      10.759676000000001      6.8476179999999989                 10.8254
   301   1      10.759754000000001      4.8912719999999981      12.781750000000001
   302   2      12.716030000000002      6.8476900000000001      8.8690499999999997
   303   2      12.716030000000002      6.8476900000000001      12.781750000000001
   304   3      14.672448000000001      4.8914139999999993                 10.8254
   305   1      12.716094000000002      4.8913420000000007                 10.8254
   306   1      14.672448000000001      4.8914139999999993      8.8690499999999997
   307   1      14.672376000000002      6.8477679999999994                 10.8254
   308   1      14.672448000000001      4.8914139999999993      12.781750000000001
   309   2      16.628730000000001      6.8478400000000006      8.8690499999999997
   310   2      16.628730000000001      6.8478400000000006      12.781750000000001
   311   3      18.585156000000001      4.8915579999999999                 10.8254
   312   1      16.628802000000004      4.8914860000000004                 10.8254
   313   1      18.585156000000001      4.8915579999999999      8.8690499999999997
   314   1      18.585084000000005      6.8479120000000009                 10.8254
   315   1      18.585156000000001      4.8915579999999999      12.781750000000001
   316   2     0.97807000000000011      2.9345600000000003      8.8690499999999997
   317   2     0.97807000000000011      2.9345600000000003      12.781750000000001
   318   3      2.9344880000000004     0.97828399999999982                 10.8254
   319   1     0.97813400000000017     0.97821200000000008                 10.8254
   320   1      2.9344880000000004     0.97828399999999982      8.8690499999999997
   321   1      2.9344160000000001      2.9346380000000001                 10.8254
   322   1      2.9344880000000004     0.97828399999999982      12.781750000000001
   323   2      4.8907700000000007      2.9347099999999999      8.8690499999999997
   324   2      4.8907700000000007      2.9347099999999999      12.781750000000001
   325   3      6.8471960000000012     0.97842799999999996                 10.8254
   326   1      4.8908420000000001     0.97835599999999989                 10.8254
   327   1      6.8471960000000012     0.97842799999999996      8.8690499999999997
   328   1                6.847118      2.9347739999999995                 10.8254
   329   1      6.8471960000000012     0.97842799999999996      12.781750000000001
   330   2      8.8034720000000011      2.9348459999999998      8.8690499999999997
   331   2      8.8034720000000011      2.9348459999999998      12.781750000000001
   332   3      10.759890000000002     0.97856999999999927                 10.8254
   333   1      8.8035360000000011     0.97849799999999965                 10.8254
   334   1      10.759890000000002     0.97856999999999927      8.8690499999999997
   335   1      10.759818000000001      2.9349239999999996                 10.8254
   336   1      10.759890000000002     0.97856999999999927      12.781750000000001
   337   2      12.716172000000002      2.9349959999999999      8.8690499999999997
   338   2      12.716172000000002      2.9349959999999999      12.781750000000001
   339   3      14.672598000000001     0.97871399999999875                 10.8254
   340   1      12.716244000000001     0.97864199999999946                 10.8254
   341   1      14.672598000000001     0.97871399999999875      8.8690499999999997
   342   1                14.67252                 2.93506                 10.8254
   343   1      14.672598000000001     0.97871399999999875      12.781750000000001
   344   2      16.628874000000003      2.9351319999999999      8.8690499999999997
   345   2      16.628874000000003      2.9351319999999999      12.781750000000001
   346   3      18.585292000000003      0.9788559999999995                 10.8254
   347   1      16.628944000000001     0.97879199999999955                 10.8254
   348   1      18.585292000000003      0.9788559999999995      8.8690499999999997
   349   1                18.58522      2.9352100000000001                 10.8254
   350   1      18.585292000000003      0.9788559999999995      12.781750000000001
   351   3     0.97811600000000032      16.628988000000003      18.716280000000001
   352   1     0.97811600000000032      16.628988000000003      16.759930000000001
   353   1     0.97811600000000032      16.628988000000003      20.672630000000002
   354   2      1.3693820000000032      19.367876000000003      16.759930000000001
   355   2      1.3693820000000032      19.367876000000003      20.672630000000002
   356   3      4.1082700000000001      18.976610000000001      18.716280000000001
   357   1      2.5431920000000008               17.802806      18.716280000000001
   358   1      4.1082700000000001      18.976610000000001      16.759930000000001