(written by ASE)

525 atoms
3 atom types

0.0             19.56350655  xlo xhi
0.0             19.56350655  ylo yhi
0.0      61.803577947500003  zlo zhi

Masses

     1      15.998999995884349 # O
     2      87.619999977460253 # Sr
     3      47.866999987686484 # Ti

Atoms # atomic

     1   3      2.5432620000000004      1.7607159999999999      2.9345300000000001
     2   1      4.1083420000000004     0.58690599999999982      2.9345300000000001
     3   1      2.5432620000000004      1.7607159999999999     0.97818000000000005
     4   1      1.3694520000000001                0.195636      2.9345300000000001
     5   1      2.5432620000000004      1.7607159999999999      4.8908800000000001
     6   1      0.9781740000000001      2.9345320000000004      2.9345300000000001
     7   3      11.151202000000001     0.19563599999999887      2.9345300000000001
     8   1      11.151202000000001     0.19563599999999887     0.97818000000000005
     9   1      11.151202000000001     0.19563599999999887      4.8908800000000001
    10   3      8.0210420000000013      2.5432559999999991      2.9345300000000001
    11   1      9.5861220000000014      1.3694459999999993      2.9345300000000001
    12   1      8.0210420000000013      2.5432559999999991     0.97818000000000005
    13   1      6.8472320000000009     0.97817599999999971      2.9345300000000001
    14   1      8.0210420000000013      2.5432559999999991      4.8908800000000001
    15   2      5.2821520000000008                2.151986     0.97818000000000005
    16   2      5.2821520000000008                2.151986      4.8908800000000001
    17   3      4.8908820000000004      4.8908759999999996      2.9345300000000001
    18   1      6.4559620000000013      3.7170659999999995      2.9345300000000001
    19   1      4.8908820000000004      4.8908759999999996     0.97818000000000005
    20   1      3.7170720000000008                3.325796      2.9345300000000001
    21   1      4.8908820000000004      4.8908759999999996      4.8908800000000001
    22   2      2.1519840000000006      4.4996119999999999     0.97818000000000005
    23   2      2.1519840000000006      4.4996119999999999      4.8908800000000001
    24   3      1.7607140000000006      7.2385020000000004      2.9345300000000001
    25   1      3.3257940000000006                6.064692      2.9345300000000001
    26   1      1.7607140000000006      7.2385020000000004     0.97818000000000005
    27   1     0.58690400000000054      5.6734220000000004      2.9345300000000001
    28   1      1.7607140000000006      7.2385020000000004      4.8908800000000001
    29   1     0.19563400000000039                8.412312      2.9345300000000001
    30   3      16.628982000000001     0.97817600000000082      2.9345300000000001
    31   1      16.628982000000001     0.97817600000000082     0.97818000000000005
    32   1      16.628982000000001     0.97817600000000082      4.8908800000000001
    33   2      13.890092000000003     0.58690599999999937     0.97818000000000005
    34   2      13.890092000000003     0.58690599999999937      4.8908800000000001
    35   3      13.498822000000002      3.3257960000000009      2.9345300000000001
    36   1      15.063902000000002      2.1519860000000004      2.9345300000000001
    37   1      13.498822000000002      3.3257960000000009     0.97818000000000005
    38   1      12.325012000000001      1.7607159999999997      2.9345300000000001
    39   1      13.498822000000002      3.3257960000000009      4.8908800000000001
    40   2      10.759932000000001      2.9345260000000004     0.97818000000000005
    41   2      10.759932000000001      2.9345260000000004      4.8908800000000001
    42   3      10.368662000000002      5.6734160000000013      2.9345300000000001
    43   1      11.933742000000002      4.4996060000000009      2.9345300000000001
    44   1      10.368662000000002      5.6734160000000013     0.97818000000000005
    45   1      9.1948520000000009      4.1083360000000004      2.9345300000000001
    46   1      10.368662000000002      5.6734160000000013      4.8908800000000001
    47   2      7.6297720000000018                5.282146     0.97818000000000005
    48   2      7.6297720000000018                5.282146      4.8908800000000001
    49   3      7.2385020000000013      8.0210360000000023      2.9345300000000001
    50   1      8.8035820000000022      6.8472260000000009      2.9345300000000001
    51   1      7.2385020000000013      8.0210360000000023     0.97818000000000005
    52   1      6.0646920000000009      6.4559560000000005      2.9345300000000001
    53   1      7.2385020000000013      8.0210360000000023      4.8908800000000001
    54   2      4.4996040000000015      7.6297720000000009     0.97818000000000005
    55   2      4.4996040000000015      7.6297720000000009      4.8908800000000001
    56   3       4.108334000000001      10.368662000000002      2.9345300000000001
    57   1       5.673414000000002      9.1948520000000009      2.9345300000000001
    58   1       4.108334000000001      10.368662000000002     0.97818000000000005
    59   1       2.934524000000001      8.8035820000000005      2.9345300000000001
    60   1       4.108334000000001      10.368662000000002      4.8908800000000001
    61   2      1.3694440000000008      9.9773920000000018     0.97818000000000005
    62   2      1.3694440000000008      9.9773920000000018      4.8908800000000001
    63   3     0.97817400000000154      12.716282000000001      2.9345300000000001
    64   1      2.5432540000000015      11.542472000000002      2.9345300000000001
    65   1     0.97817400000000154      12.716282000000001     0.97818000000000005
    66   1     0.97817400000000154      12.716282000000001      4.8908800000000001
    67   2      19.367872000000002      1.3694459999999986     0.97818000000000005
    68   2      19.367872000000002      1.3694459999999986      4.8908800000000001
    69   3      18.976602000000003      4.1083359999999995      2.9345300000000001
    70   1      18.976602000000003      4.1083359999999995     0.97818000000000005
    71   1               17.802792      2.5432559999999991      2.9345300000000001
    72   1      18.976602000000003      4.1083359999999995      4.8908800000000001
    73   2      16.237712000000002      3.7170659999999986     0.97818000000000005
    74   2      16.237712000000002      3.7170659999999986      4.8908800000000001
    75   3      15.846442000000001      6.4559559999999987      2.9345300000000001
    76   1      17.411522000000001      5.2821459999999982      2.9345300000000001
    77   1      15.846442000000001      6.4559559999999987     0.97818000000000005
    78   1               14.672632      4.8908759999999987      2.9345300000000001
    79   1      15.846442000000001      6.4559559999999987      4.8908800000000001
    80   2               13.107552      6.0646859999999991     0.97818000000000005
    81   2               13.107552      6.0646859999999991      4.8908800000000001
    82   3      12.716282000000001      8.8035759999999996      2.9345300000000001
    83   1      14.281362000000001      7.6297659999999992      2.9345300000000001
    84   1      12.716282000000001      8.8035759999999996     0.97818000000000005
    85   1               11.542472      7.2384959999999996      2.9345300000000001
    86   1      12.716282000000001      8.8035759999999996      4.8908800000000001
    87   2                9.977392      8.4123059999999992     0.97818000000000005
    88   2                9.977392      8.4123059999999992      4.8908800000000001
    89   3      9.5861220000000014      11.151196000000001      2.9345300000000001
    90   1      11.151202000000001      9.9773859999999992      2.9345300000000001
    91   1      9.5861220000000014      11.151196000000001     0.97818000000000005
    92   1                8.412312      9.5861160000000005      2.9345300000000001
    93   1      9.5861220000000014      11.151196000000001      4.8908800000000001
    94   2      6.8472240000000006      10.759931999999999     0.97818000000000005
    95   2      6.8472240000000006      10.759931999999999      4.8908800000000001
    96   3      6.4559540000000011      13.498822000000001      2.9345300000000001
    97   1       8.021034000000002      12.325011999999999      2.9345300000000001
    98   1      6.4559540000000011      13.498822000000001     0.97818000000000005
    99   1      5.2821439999999997      11.933742000000001      2.9345300000000001
   100   1      6.4559540000000011      13.498822000000001      4.8908800000000001
   101   2      3.7170640000000001               13.107552     0.97818000000000005
   102   2      3.7170640000000001               13.107552      4.8908800000000001
   103   3      3.3257940000000015               15.846442      2.9345300000000001
   104   1      4.8908740000000011               14.672632      2.9345300000000001
   105   1      3.3257940000000015               15.846442     0.97818000000000005
   106   1      2.1519840000000001               14.281362      2.9345300000000001
   107   1      3.3257940000000015               15.846442      4.8908800000000001
   108   2     0.58690399999999976      15.455172000000001     0.97818000000000005
   109   2     0.58690399999999976      15.455172000000001      4.8908800000000001
   110   3     0.19563400000000067      18.194062000000002      2.9345300000000001
   111   1      1.7607140000000012      17.020251999999999      2.9345300000000001
   112   1     0.19563400000000067      18.194062000000002     0.97818000000000005
   113   1     0.19563400000000067      18.194062000000002      4.8908800000000001
   114   2      18.585332000000001      6.8472259999999983     0.97818000000000005
   115   2      18.585332000000001      6.8472259999999983      4.8908800000000001
   116   3      18.194062000000002      9.5861159999999987      2.9345300000000001
   117   1      18.194062000000002      9.5861159999999987     0.97818000000000005
   118   1      17.020252000000003      8.0210359999999987      2.9345300000000001
   119   1      18.194062000000002      9.5861159999999987      4.8908800000000001
   120   2      15.455172000000001      9.1948460000000001     0.97818000000000005
   121   2      15.455172000000001      9.1948460000000001      4.8908800000000001
   122   3      15.063902000000001               11.933736      2.9345300000000001
   123   1      16.628982000000001               10.759926      2.9345300000000001
   124   1      15.063902000000001               11.933736     0.97818000000000005
   125   1      13.890092000000001               10.368656      2.9345300000000001
   126   1      15.063902000000001               11.933736      4.8908800000000001
   127   2      12.325012000000001      11.542465999999999     0.97818000000000005
   128   2      12.325012000000001      11.542465999999999      4.8908800000000001
   129   3      11.933742000000001      14.281356000000001      2.9345300000000001
   130   1      13.498822000000001      13.107545999999999      2.9345300000000001
   131   1      11.933742000000001      14.281356000000001     0.97818000000000005
   132   1      10.759932000000001      12.716276000000001      2.9345300000000001
   133   1      11.933742000000001      14.281356000000001      4.8908800000000001
   134   2      9.1948440000000016      13.890091999999999     0.97818000000000005
   135   2      9.1948440000000016      13.890091999999999      4.8908800000000001
   136   3      8.8035740000000011      16.628982000000001      2.9345300000000001
   137   1      10.368654000000001      15.455171999999999      2.9345300000000001
   138   1      8.8035740000000011      16.628982000000001     0.97818000000000005
   139   1      7.6297640000000007      15.063902000000001      2.9345300000000001
   140   1      8.8035740000000011      16.628982000000001      4.8908800000000001
   141   2      6.0646840000000006      16.237712000000002     0.97818000000000005
   142   2      6.0646840000000006      16.237712000000002      4.8908800000000001
   143   3      5.6734140000000011               18.976602      2.9345300000000001
   144   1      7.2384940000000002               17.802792      2.9345300000000001
   145   1      5.6734140000000011               18.976602     0.97818000000000005
   146   1      4.4996040000000015      17.411522000000001      2.9345300000000001
   147   1      5.6734140000000011               18.976602      4.8908800000000001
   148   2      2.9345240000000006      18.585332000000001     0.97818000000000005
   149   2      2.9345240000000006      18.585332000000001      4.8908800000000001
   150   1      19.367872000000002      11.151196000000001      2.9345300000000001
   151   2      17.802792000000004      12.325006000000002     0.97818000000000005
   152   2      17.802792000000004      12.325006000000002      4.8908800000000001
   153   3      17.411522000000001               15.063896      2.9345300000000001
   154   1      18.976602000000003               13.890086      2.9345300000000001
   155   1      17.411522000000001               15.063896     0.97818000000000005
   156   1      16.237712000000002      13.498816000000001      2.9345300000000001
   157   1      17.411522000000001               15.063896      4.8908800000000001
   158   2      14.672632000000002      14.672626000000001     0.97818000000000005
   159   2      14.672632000000002      14.672626000000001      4.8908800000000001
   160   3      14.281362000000001      17.411515999999999      2.9345300000000001
   161   1      15.846442000000001      16.237705999999999      2.9345300000000001
   162   1      14.281362000000001      17.411515999999999     0.97818000000000005
   163   1      13.107552000000002      15.846436000000002      2.9345300000000001
   164   1      14.281362000000001      17.411515999999999      4.8908800000000001
   165   2      11.542464000000002      17.020252000000003     0.97818000000000005
   166   2      11.542464000000002      17.020252000000003      4.8908800000000001
   167   1      12.716274000000002      18.585332000000001      2.9345300000000001
   168   1      9.9773840000000025      18.194062000000002      2.9345300000000001
   169   2      8.4123040000000024      19.367872000000002     0.97818000000000005
   170   2      8.4123040000000024      19.367872000000002      4.8908800000000001
   171   1      18.585332000000005      16.628976000000002      2.9345300000000001
   172   2      17.020252000000003      17.802786000000001     0.97818000000000005
   173   2      17.020252000000003      17.802786000000001      4.8908800000000001
   174   1      18.194062000000002      19.367866000000003      2.9345300000000001
   175   1      15.455172000000003      18.976596000000001      2.9345300000000001
   176   2      18.585328000000001     0.97820399999999863      8.8690499999999997
   177   2      18.585328000000001     0.97820399999999863      12.781750000000001
   178   3      16.628978000000004      2.9345539999999994                 10.8254
   179   1      18.585328000000001       2.934553999999999                 10.8254
   180   1      16.628978000000004      2.9345539999999994      8.8690499999999997
   181   1               16.628978     0.97820399999999907                 10.8254
   182   1      16.628978000000004      2.9345539999999994      12.781750000000001
   183   2      14.672628000000001     0.97820399999999952      8.8690499999999997
   184   2      14.672628000000001     0.97820399999999952      12.781750000000001
   185   3      12.716272000000002      2.9345459999999988                 10.8254
   186   1      14.672628000000003      2.9345540000000003                 10.8254
   187   1      12.716272000000002      2.9345459999999988      8.8690499999999997
   188   1               12.716272     0.97819599999999896                 10.8254
   189   1      12.716272000000002      2.9345459999999988      12.781750000000001
   190   2      10.759922000000001      0.9781959999999994      8.8690499999999997
   191   2      10.759922000000001      0.9781959999999994      12.781750000000001
   192   3      8.8035720000000008      2.9345459999999997                 10.8254
   193   1               10.759922      2.9345459999999997                 10.8254
   194   1      8.8035720000000008      2.9345459999999997      8.8690499999999997
   195   1      8.8035800000000002     0.97819000000000011                 10.8254
   196   1      8.8035720000000008      2.9345459999999997      12.781750000000001
   197   2      6.8472299999999997     0.97818999999999978      8.8690499999999997
   198   2      6.8472299999999997     0.97818999999999978      12.781750000000001
   199   3      4.8908740000000002      2.9345319999999999                 10.8254
   200   1      6.8472160000000013      2.9345380000000003                 10.8254
   201   1      4.8908740000000002      2.9345319999999999      8.8690499999999997
   202   1      4.8908740000000011     0.97818199999999977                 10.8254
   203   1      4.8908740000000002      2.9345319999999999      12.781750000000001
   204   2      2.9345240000000006     0.97818199999999977      8.8690499999999997
   205   2      2.9345240000000006     0.97818199999999977      12.781750000000001
   206   3     0.97816800000000015      2.9345240000000001                 10.8254
   207   1      2.9345240000000006      2.9345320000000004                 10.8254
   208   1     0.97816800000000015      2.9345240000000001      8.8690499999999997
   209   1      0.9781740000000001     0.97818200000000011                 10.8254
   210   1     0.97816800000000015      2.9345240000000001      12.781750000000001
   211   2      18.585320000000003       4.890909999999999      8.8690499999999997
   212   2      18.585320000000003       4.890909999999999      12.781750000000001
   213   3      16.628970000000002      6.8472599999999995                 10.8254
   214   1      18.585320000000003      6.8472600000000012                 10.8254
   215   1      16.628970000000002      6.8472599999999995      8.8690499999999997
   216   1      16.628970000000002       4.890909999999999                 10.8254
   217   1      16.628970000000002      6.8472599999999995      12.781750000000001
   218   2               14.672622      4.8908960000000006      8.8690499999999997
   219   2               14.672622      4.8908960000000006      12.781750000000001
   220   3      12.716264000000001      6.8472520000000001                 10.8254
   221   1      14.672614000000003       6.847252000000001                 10.8254
   222   1      12.716264000000001      6.8472520000000001      8.8690499999999997
   223   1               12.716272      4.8908959999999988                 10.8254
   224   1      12.716264000000001      6.8472520000000001      12.781750000000001
   225   2      10.759922000000001      4.8908959999999997      8.8690499999999997
   226   2      10.759922000000001      4.8908959999999997      12.781750000000001
   227   3      8.8035660000000018      6.8472380000000017                 10.8254
   228   1      10.759922000000001      6.8472460000000002                 10.8254
   229   1      8.8035660000000018      6.8472380000000017      8.8690499999999997
   230   1      8.8035720000000008      4.8908959999999997                 10.8254
   231   1      8.8035660000000018      6.8472380000000017      12.781750000000001
   232   2      6.8472160000000004      4.8908879999999995      8.8690499999999997
   233   2      6.8472160000000004      4.8908879999999995      12.781750000000001
   234   3      4.8908659999999999      6.8472380000000008                 10.8254
   235   1      6.8472160000000004      6.8472379999999999                 10.8254
   236   1      4.8908659999999999      6.8472380000000008      8.8690499999999997
   237   1      4.8908660000000008      4.8908879999999995                 10.8254
   238   1      4.8908659999999999      6.8472380000000008      12.781750000000001
   239   2      2.9345160000000003      4.8908880000000003      8.8690499999999997
   240   2      2.9345160000000003      4.8908880000000003      12.781750000000001
   241   3     0.97816000000000025      6.8472300000000006                 10.8254
   242   1      2.9345100000000008      6.8472299999999997                 10.8254
   243   1     0.97816000000000025      6.8472300000000006      8.8690499999999997
   244   1     0.97816800000000026      4.8908740000000002                 10.8254
   245   1     0.97816000000000025      6.8472300000000006      12.781750000000001
   246   2      18.585320000000003      8.8036100000000008      8.8690499999999997
   247   2      18.585320000000003      8.8036100000000008      12.781750000000001
   248   3      16.628956000000002      10.759957999999999                 10.8254
   249   1      18.585312000000002      10.759966000000002                 10.8254
   250   1      16.628956000000002      10.759957999999999      8.8690499999999997
   251   1      16.628970000000002      8.8036100000000008                 10.8254
   252   1      16.628956000000002      10.759957999999999      12.781750000000001
   253   2      14.672614000000003      8.8036019999999997      8.8690499999999997
   254   2      14.672614000000003      8.8036019999999997      12.781750000000001
   255   3      12.716264000000001               10.759952                 10.8254
   256   1      14.672614000000001      10.759951999999998                 10.8254
   257   1      12.716264000000001               10.759952      8.8690499999999997
   258   1      12.716264000000001      8.8036019999999997                 10.8254
   259   1      12.716264000000001               10.759952      12.781750000000001
   260   2               10.759914      8.8036020000000015      8.8690499999999997
   261   2               10.759914      8.8036020000000015      12.781750000000001
   262   3      8.8035580000000024      10.759944000000001                 10.8254
   263   1      10.759908000000001      10.759944000000001                 10.8254
   264   1      8.8035580000000024      10.759944000000001      8.8690499999999997
   265   1      8.8035580000000007      8.8035940000000004                 10.8254
   266   1      8.8035580000000024      10.759944000000001      12.781750000000001
   267   2      6.8472160000000004      8.8035879999999995      8.8690499999999997
   268   2      6.8472160000000004      8.8035879999999995      12.781750000000001
   269   3      4.8908520000000015      10.759936000000001                 10.8254
   270   1      6.8472080000000002      10.759943999999999                 10.8254
   271   1      4.8908520000000015      10.759936000000001      8.8690499999999997
   272   1      4.8908660000000008      8.8035879999999995                 10.8254
   273   1      4.8908520000000015      10.759936000000001      12.781750000000001
   274   2      2.9345100000000008      8.8035800000000002      8.8690499999999997
   275   2      2.9345100000000008      8.8035800000000002      12.781750000000001
   276   3     0.97816000000000025      10.759930000000001                 10.8254
   277   1      2.9345100000000008      10.759930000000001                 10.8254
   278   1     0.97816000000000025      10.759930000000001      8.8690499999999997
   279   1     0.97816000000000025       8.803580000000002                 10.8254
   280   1     0.97816000000000025      10.759930000000001      12.781750000000001
   281   2      18.585312000000002      12.716315999999999      8.8690499999999997
   282   2      18.585312000000002      12.716315999999999      12.781750000000001
   283   3      16.628956000000002      14.672657999999998                 10.8254
   284   1      18.585306000000003      14.672657999999998                 10.8254
   285   1      16.628956000000002      14.672657999999998      8.8690499999999997
   286   1      16.628956000000002      12.716308000000001                 10.8254
   287   1      16.628956000000002      14.672657999999998      12.781750000000001
   288   2      14.672606000000002      12.716308000000001      8.8690499999999997
   289   2      14.672606000000002      12.716308000000001      12.781750000000001
   290   3      12.716250000000002      14.672650000000001                 10.8254
   291   1      14.672606000000002      14.672657999999998                 10.8254
   292   1      12.716250000000002      14.672650000000001      8.8690499999999997
   293   1      12.716256000000001      12.716308000000001                 10.8254
   294   1      12.716250000000002      14.672650000000001      12.781750000000001
   295   2      10.759908000000001               12.716294      8.8690499999999997
   296   2      10.759908000000001               12.716294      12.781750000000001
   297   3      8.8035500000000013      14.672650000000001                 10.8254
   298   1      10.759900000000002      14.672650000000001                 10.8254
   299   1      8.8035500000000013      14.672650000000001      8.8690499999999997
   300   1      8.8035580000000007      12.716294000000001                 10.8254
   301   1      8.8035500000000013      14.672650000000001      12.781750000000001
   302   2      6.8472080000000011      12.716294000000001      8.8690499999999997
   303   2      6.8472080000000011      12.716294000000001      12.781750000000001
   304   3      4.8908520000000006      14.672636000000001                 10.8254
   305   1      6.8472020000000002      14.672636000000001                 10.8254
   306   1      4.8908520000000006      14.672636000000001      8.8690499999999997
   307   1      4.8908520000000015      12.716286000000002                 10.8254
   308   1      4.8908520000000006      14.672636000000001      12.781750000000001
   309   2      2.9345020000000015               12.716286      8.8690499999999997
   310   2      2.9345020000000015               12.716286      12.781750000000001
   311   3     0.97814599999999996      14.672628000000001                 10.8254
   312   1      2.9345020000000006      14.672636000000002                 10.8254
   313   1     0.97814599999999996      14.672628000000001      8.8690499999999997
   314   1     0.97815200000000058               12.716286                 10.8254
   315   1     0.97814599999999996      14.672628000000001      12.781750000000001
   316   2      18.585298000000002      16.629014000000002      8.8690499999999997
   317   2      18.585298000000002      16.629014000000002      12.781750000000001
   318   3      16.628948000000001      18.585363999999998                 10.8254
   319   1      18.585298000000002      18.585363999999998                 10.8254
   320   1      16.628948000000001      18.585363999999998      8.8690499999999997
   321   1      16.628948000000001      16.629013999999998                 10.8254
   322   1      16.628948000000001      18.585363999999998      12.781750000000001
   323   2      14.672606000000004      16.629007999999999      8.8690499999999997
   324   2      14.672606000000004      16.629007999999999      12.781750000000001
   325   3      12.716242000000001      18.585356000000001                 10.8254
   326   1      14.672592000000002      18.585356000000001                 10.8254
   327   1      12.716242000000001      18.585356000000001      8.8690499999999997
   328   1      12.716250000000002      16.629000000000001                 10.8254
   329   1      12.716242000000001      18.585356000000001      12.781750000000001
   330   2                 10.7599      16.629000000000001      8.8690499999999997
   331   2                 10.7599      16.629000000000001      12.781750000000001
   332   3      8.8035440000000023      18.585342000000004                 10.8254
   333   1      10.759900000000002      18.585350000000002                 10.8254
   334   1      8.8035440000000023      18.585342000000004      8.8690499999999997
   335   1      8.8035500000000013      16.629000000000001                 10.8254
   336   1      8.8035440000000023      18.585342000000004      12.781750000000001
   337   2      6.8471940000000018               16.628992      8.8690499999999997
   338   2      6.8471940000000018               16.628992      12.781750000000001
   339   3      4.8908439999999995      18.585342000000001                 10.8254
   340   1      6.8471940000000036      18.585342000000001                 10.8254
   341   1      4.8908439999999995      18.585342000000001      8.8690499999999997
   342   1      4.8908440000000013      16.628992000000004                 10.8254
   343   1      4.8908439999999995      18.585342000000001      12.781750000000001
   344   2      2.9345020000000024      16.628986000000001      8.8690499999999997
   345   2      2.9345020000000024      16.628986000000001      12.781750000000001
   346   3     0.97813800000000051               18.585334                 10.8254
   347   1      2.9344880000000004               18.585334                 10.8254
   348   1     0.97813800000000051               18.585334      8.8690499999999997
   349   1     0.97814599999999985               16.628978                 10.8254
   350   1     0.97813800000000051               18.585334      12.781750000000001
   351   3               18.586036      2.9300480000000015      18.716280000000001
   352   1               18.586036      2.9300480000000015      16.759930000000001
   353   1               18.586036      2.9300480000000015      20.672630000000002
   354   2      18.194106000000001     0.19125799999999926      16.759930000000001
   355   2      18.194106000000001     0.19125799999999926      20.672630000000002
   356   3      15.455310000000003     0.58317999999999837      18.716280000000001
   357   1      17.020676000000002      1.7566179999999991      18.716280000000001
   358   1      15.455310000000003     0.58317999999999837      16.759930000000001