(written by ASE)

189 atoms
3 atom types

0.0      12.373047943524554  xlo xhi
0.0      12.373047943524554  ylo yhi
0.0      61.803577947500003  zlo zhi

Masses

     1      15.998999995884349 # O
     2      87.619999977460253 # Sr
     3      47.866999987686484 # Ti

Atoms # atomic

     1   2     0.61865535232470115      1.2373107046494021     0.97818000000000005
     2   2     0.61865535232470115      1.2373107046494021      4.8908800000000001
     3   3      1.8559597324187831      3.7119194648375657      2.9345300000000001
     4   1      2.4746119224658236      1.8559628946964428      2.9345300000000001
     5   1      1.8559597324187831      3.7119194648375657     0.97818000000000005
     6   1      1.8559597324187831      3.7119194648375657      4.8908800000000001
     7   3     0.61865535232470148      7.4238326051198102      2.9345300000000001
     8   1      1.2373075423717421      5.5678760349786884      2.9345300000000001
     9   1     0.61865535232470148      7.4238326051198102     0.97818000000000005
    10   1     0.61865535232470148      7.4238326051198102      4.8908800000000001
    11   3      6.8051804150727699      1.2373012178164213      2.9345300000000001
    12   1      6.8051804150727699      1.2373012178164213     0.97818000000000005
    13   1      4.9492238449316472     0.61864902776938058      2.9345300000000001
    14   1      6.8051804150727699      1.2373012178164213      4.8908800000000001
    15   2      4.3305684926069459      2.4746150847434838     0.97818000000000005
    16   2      4.3305684926069459      2.4746150847434838      4.8908800000000001
    17   3      5.5678728727010283      4.9492238449316472      2.9345300000000001
    18   1      6.1865250627480686      3.0932672747905245      2.9345300000000001
    19   1      5.5678728727010283      4.9492238449316472     0.97818000000000005
    20   1      3.7119163025599051       4.330571654884606      2.9345300000000001
    21   1      5.5678728727010283      4.9492238449316472      4.8908800000000001
    22   2      3.0932641125128644      6.1865282250257287     0.97818000000000005
    23   2      3.0932641125128644      6.1865282250257287      4.8908800000000001
    24   3      4.3305684926069468      8.6611369852138917      2.9345300000000001
    25   1      4.9492206826539871      6.8051804150727699      2.9345300000000001
    26   1      4.3305684926069468      8.6611369852138917     0.97818000000000005
    27   1      2.4746119224658236      8.0424847951668514      2.9345300000000001
    28   1      4.3305684926069468      8.6611369852138917      4.8908800000000001
    29   2      1.8559597324187829      9.8984413653079741     0.97818000000000005
    30   2      1.8559597324187829      9.8984413653079741      4.8908800000000001
    31   1      3.7119163025599056      10.517093555355014      2.9345300000000001
    32   1      1.2373075423717419      11.754397935449097      2.9345300000000001
    33   3      10.517093555355016      2.4746055979105033      2.9345300000000001
    34   1      11.135745745402057     0.61864902776938069      2.9345300000000001
    35   1      10.517093555355016      2.4746055979105033     0.97818000000000005
    36   1      8.6611369852138935      1.8559534078634621      2.9345300000000001
    37   1      10.517093555355016      2.4746055979105033      4.8908800000000001
    38   2      8.0424816328891922      3.7119194648375653     0.97818000000000005
    39   2      8.0424816328891922      3.7119194648375653      4.8908800000000001
    40   3      9.2797860129832745      6.1865282250257287      2.9345300000000001
    41   1      9.8984382030303149       4.330571654884606      2.9345300000000001
    42   1      9.2797860129832745      6.1865282250257287     0.97818000000000005
    43   1      7.4238294428421518      5.5678760349786875      2.9345300000000001
    44   1      9.2797860129832745      6.1865282250257287      4.8908800000000001
    45   2      6.8051772527951107      7.4238326051198102     0.97818000000000005
    46   2      6.8051772527951107      7.4238326051198102      4.8908800000000001
    47   3      8.0424816328891922      9.8984413653079741      2.9345300000000001
    48   1      8.6611338229362342      8.0424847951668514      2.9345300000000001
    49   1      8.0424816328891922      9.8984413653079741     0.97818000000000005
    50   1      6.1865250627480703      9.2797891752609321      2.9345300000000001
    51   1      8.0424816328891922      9.8984413653079741      4.8908800000000001
    52   2      5.5678728727010292      11.135745745402057     0.97818000000000005
    53   2      5.5678728727010292      11.135745745402057      4.8908800000000001
    54   1      7.4238294428421518      11.754397935449097      2.9345300000000001
    55   2      11.754394773171436      4.9492238449316464     0.97818000000000005
    56   2      11.754394773171436      4.9492238449316464      4.8908800000000001
    57   1      11.135742583124395      6.8051804150727691      2.9345300000000001
    58   2      10.517090393077355      8.6611369852138917     0.97818000000000005
    59   2      10.517090393077355      8.6611369852138917      4.8908800000000001
    60   3      11.754394773171436      11.135745745402055      2.9345300000000001
    61   1      11.754394773171436      11.135745745402055     0.97818000000000005
    62   1      9.8984382030303131      10.517093555355014      2.9345300000000001
    63   1      11.754394773171436      11.135745745402055      4.8908800000000001
    64   2      11.135853262842502     0.61671371384135754      8.8690499999999997
    65   2      11.135853262842502     0.61671371384135754      12.781750000000001
    66   3      8.6614595375352295      1.8544481636972219                 10.8254
    67   1      10.517523625116798      2.4727778014229256                 10.8254
    68   1      8.6614595375352295      1.8544481636972219      8.8690499999999997
    69   1      8.6614595375352295      1.8544481636972219      12.781750000000001
    70   3      4.9493313623720931     0.61778888824581479                 10.8254
    71   1      6.8053954499536609      1.2361185259715184                 10.8254
    72   1      4.9493313623720931     0.61778888824581479      8.8690499999999997
    73   1      4.9493313623720931     0.61778888824581479      12.781750000000001
    74   3      11.136928437246958      6.8032356143117658                 10.8254
    75   1      11.136928437246958      6.8032356143117658      8.8690499999999997
    76   1      11.755258074972662      4.9471715267301972                 10.8254
    77   1      11.136928437246958      6.8032356143117658      12.781750000000001
    78   2      9.8991939873910955      4.3288418890044937      8.8690499999999997
    79   2      9.8991939873910955      4.3288418890044937      12.781750000000001
    80   3      7.4248002620838234      5.5665763388603589                 10.8254
    81   1      9.2808643496653893      6.1849059765860623                 10.8254
    82   1      7.4248002620838234      5.5665763388603589      8.8690499999999997
    83   1      8.0431298998095269      3.7105122512787903                 10.8254
    84   1      7.4248002620838234      5.5665763388603589      12.781750000000001
    85   2      6.1870658122279583      3.0921826135530868      8.8690499999999997
    86   2      6.1870658122279583      3.0921826135530868      12.781750000000001
    87   3      3.7126720869206862      4.3299170634089519                 10.8254
    88   1      5.5687361745022539      4.9482467011346554                 10.8254
    89   1      3.7126720869206862      4.3299170634089519      8.8690499999999997
    90   1      4.3310017246463897      2.4738529758273828                 10.8254
    91   1      3.7126720869206862      4.3299170634089519      12.781750000000001
    92   2      2.4749376370648211      1.8555233381016794      8.8690499999999997
    93   2      2.4749376370648211      1.8555233381016794      12.781750000000001
    94   1      1.8566079993391176      3.7115874256832475                 10.8254
    95   1     0.61887354948325279      1.2371937003759759                 10.8254
    96   3      9.9002691617955527      10.515363789474904                 10.8254
    97   1       11.75633324937712      11.133693427200607                 10.8254
    98   1      9.9002691617955527      10.515363789474904      8.8690499999999997
    99   1      10.518598799521255      8.6592997018933335                 10.8254
   100   1      9.9002691617955527      10.515363789474904      12.781750000000001
   101   2      8.6625347119396867      8.0409700641676309      8.8690499999999997
   102   2      8.6625347119396867      8.0409700641676309      12.781750000000001
   103   3      6.1881409866324155      9.2787045140234952                 10.8254
   104   1      8.0442050742139841      9.8970341517491995                 10.8254
   105   1      6.1881409866324155      9.2787045140234952      8.8690499999999997
   106   1      6.8064706243581181      7.4226404264419266                 10.8254
   107   1      6.1881409866324155      9.2787045140234952      12.781750000000001
   108   2      4.9504065367765504       6.804310788716224      8.8690499999999997
   109   2      4.9504065367765504       6.804310788716224      12.781750000000001
   110   3      2.4760128114692792      8.0420452385720882                 10.8254
   111   1      4.3320768990508469      8.6603748762977908                 10.8254
   112   1      2.4760128114692792      8.0420452385720882      8.8690499999999997
   113   1      3.0943424491949822      6.1859811509905196                 10.8254
   114   1      2.4760128114692792      8.0420452385720882      12.781750000000001
   115   2      1.2382783616134134      5.5676515132648161      8.8690499999999997
   116   2      1.2382783616134134      5.5676515132648161      12.781750000000001
   117   1     0.61994556161004966      7.4237250876793652                 10.8254
   118   2      7.4258754364882789      11.753098239330768      8.8690499999999997
   119   2      7.4258754364882789      11.753098239330768      12.781750000000001
   120   1       5.569811348906712      11.134768601605064                 10.8254
   121   2      3.7137472613251439      10.516438963879359      8.8690499999999997
   122   2      3.7137472613251439      10.516438963879359      12.781750000000001
   123   3      1.2393535360178716      11.754173413735224                 10.8254
   124   1      1.2393535360178716      11.754173413735224      8.8690499999999997
   125   1      1.8576831737435742      9.8981093261536568                 10.8254
   126   1      1.2393535360178716      11.754173413735224      12.781750000000001
   127   3      11.136726051476709      5.5659059359964029      18.716280000000001
   128   1      11.755707118400405      7.4217613132524001      18.716280000000001
   129   1      11.136726051476709      5.5659059359964029      16.759930000000001
   130   1      11.136726051476709      5.5659059359964029      20.672630000000002
   131   3      9.8987670799069711      1.8542173174280294      18.716280000000001
   132   1      10.517741822275351      3.7100600455733859      18.716280000000001
   133   1      9.8987670799069711      1.8542173174280294      16.759930000000001
   134   1      11.754612970329989      1.2352330882266713      18.716280000000001
   135   1      9.8987670799069711      1.8542173174280294      20.672630000000002
   136   2      11.137810712714147      11.752430998744472      16.759930000000001
   137   2      11.137810712714147      11.752430998744472      20.672630000000002
   138   3      8.6629837553674314      10.515559850689833      18.716280000000001
   139   1      8.6629837553674314      10.515559850689833      16.759930000000001
   140   1      10.518835970345769      9.8965882705991142      18.716280000000001
   141   1      8.6629837553674314      10.515559850689833      20.672630000000002
   142   2      9.8998549034220691       8.040732893343117      16.759930000000001
   143   2      9.8998549034220691       8.040732893343117      20.672630000000002
   144   3      7.4250247837976939      6.8038712321214598      18.716280000000001
   145   1      8.0440090129990534      8.6597171225444765      18.716280000000001
   146   1      7.4250247837976939      6.8038712321214598      16.759930000000001
   147   1      9.2808801610536911      6.1848901651977615      18.716280000000001
   148   1      7.4250247837976939      6.8038712321214598      20.672630000000002
   149   2      8.6618959318523334      4.3290442747747448      16.759930000000001
   150   2      8.6618959318523334      4.3290442747747448      20.672630000000002
   151   3      6.1870689745056184      3.0921731267201062      18.716280000000001
   152   1       6.806053203706977      4.9480190171431229      18.716280000000001
   153   1      6.1870689745056184      3.0921731267201062      16.759930000000001
   154   1      8.0429148649286333      2.4731888975187473      18.716280000000001
   155   1      6.1870689745056184      3.0921731267201062      20.672630000000002
   156   2      7.4239401225602561     0.61734616937339126      16.759930000000001
   157   2      7.4239401225602561     0.61734616937339126      20.672630000000002
   158   1      5.5680879075819192      1.2363177494641089      18.716280000000001
   159   3      4.9512951367990574       11.75351882225957      18.716280000000001
   160   1      4.9512951367990574       11.75351882225957      16.759930000000001
   161   1      6.8071378649444139      11.134544079891192      18.716280000000001
   162   1      4.9512951367990574       11.75351882225957      20.672630000000002
   163   2      6.1881662848536969      9.2786918649128545      16.759930000000001
   164   2      6.1881662848536969      9.2786918649128545      20.672630000000002
   165   3      3.7133361652293213      8.0418302036911964      18.716280000000001
   166   1      4.3323109075976998      9.8976729318365528      18.716280000000001
   167   1      3.7133361652293213      8.0418302036911964      16.759930000000001
   168   1      5.5691820556523384      7.4228459744898379      18.716280000000001
   169   1      3.7133361652293213      8.0418302036911964      20.672630000000002
   170   2      4.9501978264509798      5.5670000840668212      16.759930000000001
   171   2      4.9501978264509798      5.5670000840668212      20.672630000000002
   172   3       2.475370869104264      4.3301289360121826      18.716280000000001
   173   1      3.0943550983056229      6.1859748264351992      18.716280000000001
   174   1       2.475370869104264      4.3301289360121826      16.759930000000001
   175   1      4.3312262463602611      3.7111478690884847      18.716280000000001
   176   1       2.475370869104264      4.3301289360121826      20.672630000000002
   177   2      3.7122420171589026      1.8553019786654674      16.759930000000001
   178   2      3.7122420171589026      1.8553019786654674      20.672630000000002
   179   3      1.2374150598121876     0.61843083061082904      18.716280000000001
   180   1      1.8563961267358859      2.4742862078668262      18.716280000000001
   181   1      1.2374150598121876     0.61843083061082904      16.759930000000001
   182   1      1.2374150598121876     0.61843083061082904      20.672630000000002
   183   2      2.4764650171746831       10.51665716103791      16.759930000000001
   184   2      2.4764650171746831       10.51665716103791      20.672630000000002
   185   1     0.62061280219634529      11.135628741128629      18.716280000000001
   186   1      1.8574839502509837      8.6608017837819133      18.716280000000001
   187   2      1.2385092078826061      6.8049590556365578      16.759930000000001
   188   2      1.2385092078826061      6.8049590556365578      20.672630000000002
   189   1     0.61952497868124745      4.9491131652135412      18.716280000000001
