(written by ASE)

189 atoms
3 atom types

0.0      12.373047943524554  xlo xhi
0.0      12.373047943524554  ylo yhi
0.0      61.803577947500003  zlo zhi

Masses

     1      15.998999995884349 # O
     2      87.619999977460253 # Sr
     3      47.866999987686484 # Ti

Atoms # atomic

     1   3      1.2373012178164211      6.8051804150727699      2.9345300000000001
     2   1     0.61864902776938047      4.9492238449316472      2.9345300000000001
     3   1      1.2373012178164211      6.8051804150727699     0.97818000000000005
     4   1      1.2373012178164211      6.8051804150727699      4.8908800000000001
     5   3      2.4746055979105033      10.517093555355016      2.9345300000000001
     6   1      1.8559534078634621      8.6611369852138935      2.9345300000000001
     7   1      2.4746055979105033      10.517093555355016     0.97818000000000005
     8   1     0.61864902776938036      11.135745745402057      2.9345300000000001
     9   1      2.4746055979105033      10.517093555355016      4.8908800000000001
    10   2      1.2373107046494021     0.61865535232470104     0.97818000000000005
    11   2      1.2373107046494021     0.61865535232470104      4.8908800000000001
    12   3      3.7119194648375657      1.8559597324187829      2.9345300000000001
    13   1      3.7119194648375657      1.8559597324187829     0.97818000000000005
    14   1      1.8559628946964428      2.4746119224658236      2.9345300000000001
    15   1      3.7119194648375657      1.8559597324187829      4.8908800000000001
    16   2      2.4746150847434838      4.3305684926069468     0.97818000000000005
    17   2      2.4746150847434838      4.3305684926069468      4.8908800000000001
    18   3      4.9492238449316472      5.5678728727010274      2.9345300000000001
    19   1       4.330571654884606      3.7119163025599056      2.9345300000000001
    20   1      4.9492238449316472      5.5678728727010274     0.97818000000000005
    21   1      3.0932672747905245      6.1865250627480686      2.9345300000000001
    22   1      4.9492238449316472      5.5678728727010274      4.8908800000000001
    23   2      3.7119194648375653      8.0424816328891922     0.97818000000000005
    24   2      3.7119194648375653      8.0424816328891922      4.8908800000000001
    25   3      6.1865282250257287      9.2797860129832745      2.9345300000000001
    26   1      5.5678760349786884       7.423829442842151      2.9345300000000001
    27   1      6.1865282250257287      9.2797860129832745     0.97818000000000005
    28   1       4.330571654884606      9.8984382030303149      2.9345300000000001
    29   1      6.1865282250257287      9.2797860129832745      4.8908800000000001
    30   2      4.9492238449316464      11.754394773171436     0.97818000000000005
    31   2      4.9492238449316464      11.754394773171436      4.8908800000000001
    32   1      6.8051804150727691      11.135742583124395      2.9345300000000001
    33   3      7.4238326051198102     0.61865535232470126      2.9345300000000001
    34   1      7.4238326051198102     0.61865535232470126     0.97818000000000005
    35   1      5.5678760349786875      1.2373075423717421      2.9345300000000001
    36   1      7.4238326051198102     0.61865535232470126      4.8908800000000001
    37   2      6.1865282250257287      3.0932641125128648     0.97818000000000005
    38   2      6.1865282250257287      3.0932641125128648      4.8908800000000001
    39   3      8.6611369852138917      4.3305684926069459      2.9345300000000001
    40   1      8.0424847951668514      2.4746119224658241      2.9345300000000001
    41   1      8.6611369852138917      4.3305684926069459     0.97818000000000005
    42   1      6.8051804150727691      4.9492206826539871      2.9345300000000001
    43   1      8.6611369852138917      4.3305684926069459      4.8908800000000001
    44   2      7.4238326051198102      6.8051772527951098     0.97818000000000005
    45   2      7.4238326051198102      6.8051772527951098      4.8908800000000001
    46   3      9.8984413653079741      8.0424816328891922      2.9345300000000001
    47   1      9.2797891752609338      6.1865250627480695      2.9345300000000001
    48   1      9.8984413653079741      8.0424816328891922     0.97818000000000005
    49   1      8.0424847951668514      8.6611338229362325      2.9345300000000001
    50   1      9.8984413653079741      8.0424816328891922      4.8908800000000001
    51   2      8.6611369852138917      10.517090393077355     0.97818000000000005
    52   2      8.6611369852138917      10.517090393077355      4.8908800000000001
    53   3      11.135745745402055      11.754394773171438      2.9345300000000001
    54   1      10.517093555355014      9.8984382030303131      2.9345300000000001
    55   1      11.135745745402055      11.754394773171438     0.97818000000000005
    56   1      11.135745745402055      11.754394773171438      4.8908800000000001
    57   2      9.8984413653079741      1.8559597324187831     0.97818000000000005
    58   2      9.8984413653079741      1.8559597324187831      4.8908800000000001
    59   1      11.754397935449097      1.2373075423717419      2.9345300000000001
    60   1      10.517093555355016      3.7119163025599056      2.9345300000000001
    61   2      11.135745745402057      5.5678728727010283     0.97818000000000005
    62   2      11.135745745402057      5.5678728727010283      4.8908800000000001
    63   1      11.754397935449097      7.4238294428421518      2.9345300000000001
    64   3      5.5683029424628101      1.2353627416107384                 10.8254
    65   1      7.4240444777230428     0.61606544692102316                 10.8254
    66   1      5.5683029424628101      1.2353627416107384      8.8690499999999997
    67   1      5.5683029424628101      1.2353627416107384      12.781750000000001
    68   3      1.8568198719423485       2.473957330990169                 10.8254
    69   1      3.7125614072025797      1.8546600363004537                 10.8254
    70   1      1.8568198719423485       2.473957330990169      8.8690499999999997
    71   1      1.2375225772526333     0.61821579572993768                 10.8254
    72   1      1.8568198719423485       2.473957330990169      12.781750000000001
    73   2       11.75483116748854      1.2331997436911839      8.8690499999999997
    74   2       11.75483116748854      1.2331997436911839      12.781750000000001
    75   3      10.518386926918025      3.7082385736411299                 10.8254
    76   1      10.518386926918025      3.7082385736411299      8.8690499999999997
    77   1      9.8990801453953274      1.8525002006585591                 10.8254
    78   1      10.518386926918025      3.7082385736411299      12.781750000000001
    79   2      8.0433417724127576      2.4718069821812545      8.8690499999999997
    80   2      8.0433417724127576      2.4718069821812545      12.781750000000001
    81   3      6.8069070186752212      4.9468426498535401                 10.8254
    82   1       8.662648553935453      4.3275453551638252                 10.8254
    83   1      6.8069070186752212      4.9468426498535401      8.8690499999999997
    84   1      6.1876002371525258      3.0911042768709698                 10.8254
    85   1      6.8069070186752212      4.9468426498535401      12.781750000000001
    86   2      4.3318587018922949      3.7104015715606846      8.8690499999999997
    87   2      4.3318587018922949      3.7104015715606846      12.781750000000001
    88   3      3.0954271104324196       6.185446726065952                 10.8254
    89   1      4.9511654834149903      5.5661399445432558                 10.8254
    90   1      3.0954271104324196       6.185446726065952      8.8690499999999997
    91   1      2.4761171666320636      4.3296988662503999                 10.8254
    92   1      3.0954271104324196       6.185446726065952      12.781750000000001
    93   2     0.62037879364949267      4.9490056477730953      8.8690499999999997
    94   2     0.62037879364949267      4.9490056477730953      12.781750000000001
    95   1      1.2396760883392077       6.804747183033327                 10.8254
    96   3      11.756981516297454      7.4197216441615916                 10.8254
    97   1      11.756981516297454      7.4197216441615916      8.8690499999999997
    98   1      11.137684221607739      5.5639801089013607                 10.8254
    99   1      11.756981516297454      7.4197216441615916      12.781750000000001
   100   2      9.2819458486251687       6.183286890424057      8.8690499999999997
   101   2      9.2819458486251687       6.183286890424057      12.781750000000001
   102   3      8.0455016080546518      8.6583257203740018                 10.8254
   103   1      9.9012431433148826      8.0390284256842879                 10.8254
   104   1      8.0455016080546518      8.6583257203740018      8.8690499999999997
   105   1      7.4262043133649369      6.8025841851137709                 10.8254
   106   1      8.0455016080546518      8.6583257203740018      12.781750000000001
   107   2       5.570462778104706      7.4218814798034867      8.8690499999999997
   108   2       5.570462778104706      7.4218814798034867      12.781750000000001
   109   3      4.3340216998118493      9.8969297965864129                 10.8254
   110   1      6.1897600727944209      9.2776230150637193                 10.8254
   111   1      4.3340216998118493      9.8969297965864129      8.8690499999999997
   112   1      3.7147244051221349      8.0411882613261838                 10.8254
   113   1      4.3340216998118493      9.8969297965864129      12.781750000000001
   114   2      1.8589828698619033      8.6604855560158978      8.8690499999999997
   115   2      1.8589828698619033      8.6604855560158978      12.781750000000001
   116   3     0.62253862929138726      11.135524385965843                 10.8254
   117   1      2.4782801645516188      10.516227091276129                 10.8254
   118   1     0.62253862929138726      11.135524385965843      8.8690499999999997
   119   1     0.62253862929138726      11.135524385965843      12.781750000000001
   120   2       10.52054992483758      9.8947667986668577      8.8690499999999997
   121   2       10.52054992483758      9.8947667986668577      12.781750000000001
   122   1      11.139847219527294       11.75050833392709                 10.8254
   123   1      8.6648083895773471      10.514064093356573                 10.8254
   124   2      6.8090573674841357      11.133364550323948      8.8690499999999997
   125   2      6.8090573674841357      11.133364550323948      12.781750000000001
   126   1       4.953318994501565      11.752671331846646                 10.8254
   127   2      11.135853262842502     0.61673268750731935      16.759930000000001
   128   2      11.135853262842502     0.61673268750731935      20.672630000000002
   129   3       8.661450050702248      1.8544639750855232      18.716280000000001
   130   1      10.517520462839139      2.4727936128112269      18.716280000000001
   131   1       8.661450050702248      1.8544639750855232      16.759930000000001
   132   1       8.661450050702248      1.8544639750855232      20.672630000000002
   133   3      4.9493282000944321     0.61779837507879543      18.716280000000001
   134   1      6.8053891253983414      1.2361311750821593      18.716280000000001
   135   1      4.9493282000944321     0.61779837507879543      16.759930000000001
   136   1      4.9493282000944321     0.61779837507879543      20.672630000000002
   137   3      11.136915788136317      6.8032482634224074      18.716280000000001
   138   1      11.136915788136317      6.8032482634224074      16.759930000000001
   139   1      11.755248588139683      4.9471873381184999      18.716280000000001
   140   1      11.136915788136317      6.8032482634224074      20.672630000000002
   141   2      9.8991876628357733      4.3288545381151353      16.759930000000001
   142   2      9.8991876628357733      4.3288545381151353      20.672630000000002
   143   3      7.4247844506955207      5.5665858256933394      18.716280000000001
   144   1      9.2808548628324097      6.1849154634190446      18.716280000000001
   145   1      7.4247844506955207      5.5665858256933394      16.759930000000001
   146   1      8.0431172506988844      3.7105249003894318      18.716280000000001
   147   1      7.4247844506955207      5.5665858256933394      20.672630000000002
   148   2      6.1870563253949769      3.0921921003860677      16.759930000000001
   149   2      6.1870563253949769      3.0921921003860677      20.672630000000002
   150   3      3.7126626000877048      4.3299202256866121      18.716280000000001
   151   1      5.5687235253916132      4.9482530256899757      18.716280000000001
   152   1      3.7126626000877048      4.3299202256866121      16.759930000000001
   153   1      4.3309954000910684      2.4738593003827036      18.716280000000001
   154   1      3.7126626000877048      4.3299202256866121      20.672630000000002
   155   2      2.4749249879541799      1.8555296626569997      16.759930000000001
   156   2      2.4749249879541799      1.8555296626569997      20.672630000000002
   157   1      1.8565921879508163      3.7115905879609081      18.716280000000001
   158   1     0.61886406265027205       1.237196862653636      18.716280000000001
   159   3       9.900253350407251      10.515379600863204      18.716280000000001
   160   1      11.756314275711159      11.133712400866568      18.716280000000001
   161   1       9.900253350407251      10.515379600863204      16.759930000000001
   162   1      10.518586150410615      8.6593186755592946      18.716280000000001
   163   1       9.900253350407251      10.515379600863204      20.672630000000002
   164   2      8.6625252251067053      8.0409858755559327      16.759930000000001
   165   2      8.6625252251067053      8.0409858755559327      20.672630000000002
   166   3      6.1881220129664536      9.2787171631341376      18.716280000000001
   167   1      8.0441924251033416      9.8970468008598402      18.716280000000001
   168   1      6.1881220129664536      9.2787171631341376      16.759930000000001
   169   1      6.8064548129698172      7.4226562378302292      18.716280000000001
   170   1      6.1881220129664536      9.2787171631341376      20.672630000000002
   171   2      4.9503938876659088      6.8043234378268647      16.759930000000001
   172   2      4.9503938876659088      6.8043234378268647      20.672630000000002
   173   3      2.4760001623586372      8.0420515631274085      18.716280000000001
   174   1      4.3320610876625452      8.6603843631307722      18.716280000000001
   175   1      2.4760001623586372      8.0420515631274085      16.759930000000001
   176   1      3.0943329623620013      6.1859906378235001      18.716280000000001
   177   1      2.4760001623586372      8.0420515631274085      20.672630000000002
   178   2      1.2382625502251126      5.5676610000977966      16.759930000000001
   179   2      1.2382625502251126      5.5676610000977966      20.672630000000002
   180   1     0.61992975022174879      7.4237219254017051      18.716280000000001
   181   2       7.425859625099978      11.753107726163748      16.759930000000001
   182   2       7.425859625099978      11.753107726163748      20.672630000000002
   183   1      5.5697892129630899      11.134778088438045      18.716280000000001
   184   2      3.7137282876591819      10.516445288434682      16.759930000000001
   185   2      3.7137282876591819      10.516445288434682      20.672630000000002
   186   3      1.2393377246295696      11.754182900568205      18.716280000000001
   187   1      1.2393377246295696      11.754182900568205      16.759930000000001
   188   1      1.8576673623552733      9.8981124884313161      18.716280000000001
   189   1      1.2393377246295696      11.754182900568205      20.672630000000002
