(written by ASE)

231 atoms
3 atom types

0.0      12.373047943524554  xlo xhi
0.0      12.373047943524554  ylo yhi
0.0      61.803577947500003  zlo zhi

Masses

     1      15.998999995884349 # O
     2      87.619999977460253 # Sr
     3      47.866999987686484 # Ti

Atoms # atomic

     1   3  3.1622776605742503e-06      9.2797891752609338      2.9345300000000001
     2   1  3.1622776605742503e-06      9.2797891752609338     0.97818000000000005
     3   1  3.1622776605742503e-06      9.2797891752609338      4.8908800000000001
     4   3      1.2373075423717421      5.5678760349786884      2.9345300000000001
     5   1     0.61865535232470148      7.4238326051198102      2.9345300000000001
     6   1      1.2373075423717421      5.5678760349786884     0.97818000000000005
     7   1      1.2373075423717421      5.5678760349786884      4.8908800000000001
     8   2  3.1622776603020139e-06      3.0932672747905245     0.97818000000000005
     9   2  3.1622776603020139e-06      3.0932672747905245      4.8908800000000001
    10   3      2.4746119224658236      1.8559628946964428      2.9345300000000001
    11   1      1.8559597324187831      3.7119194648375657      2.9345300000000001
    12   1      2.4746119224658236      1.8559628946964428     0.97818000000000005
    13   1     0.61865535232470115      1.2373107046494021      2.9345300000000001
    14   1      2.4746119224658236      1.8559628946964428      4.8908800000000001
    15   1       3.093267274790525 -3.1622776602803328e-06      2.9345300000000001
    16   2      1.2373075423717419      11.754397935449097     0.97818000000000005
    17   2      1.2373075423717419      11.754397935449097      4.8908800000000001
    18   3      3.7119163025599056      10.517093555355014      2.9345300000000001
    19   1      3.0932641125128644      12.373050125496139      2.9345300000000001
    20   1      3.7119163025599056      10.517093555355014     0.97818000000000005
    21   1      1.8559597324187829      9.8984413653079741      2.9345300000000001
    22   1      3.7119163025599056      10.517093555355014      4.8908800000000001
    23   2      2.4746119224658236      8.0424847951668514     0.97818000000000005
    24   2      2.4746119224658236      8.0424847951668514      4.8908800000000001
    25   3      4.9492206826539871      6.8051804150727699      2.9345300000000001
    26   1      4.3305684926069468      8.6611369852138917      2.9345300000000001
    27   1      4.9492206826539871      6.8051804150727699     0.97818000000000005
    28   1      3.0932641125128644      6.1865282250257287      2.9345300000000001
    29   1      4.9492206826539871      6.8051804150727699      4.8908800000000001
    30   2      3.7119163025599051       4.330571654884606     0.97818000000000005
    31   2      3.7119163025599051       4.330571654884606      4.8908800000000001
    32   3      6.1865250627480686      3.0932672747905245      2.9345300000000001
    33   1      5.5678728727010283      4.9492238449316472      2.9345300000000001
    34   1      6.1865250627480686      3.0932672747905245     0.97818000000000005
    35   1      4.3305684926069459      2.4746150847434838      2.9345300000000001
    36   1      6.1865250627480686      3.0932672747905245      4.8908800000000001
    37   2      4.9492238449316472     0.61864902776938058     0.97818000000000005
    38   2      4.9492238449316472     0.61864902776938058      4.8908800000000001
    39   1      6.8051804150727699      1.2373012178164213      2.9345300000000001
    40   3      7.4238294428421518      11.754397935449097      2.9345300000000001
    41   1      7.4238294428421518      11.754397935449097     0.97818000000000005
    42   1      5.5678728727010292      11.135745745402057      2.9345300000000001
    43   1      7.4238294428421518      11.754397935449097      4.8908800000000001
    44   2      6.1865250627480703      9.2797891752609321     0.97818000000000005
    45   2      6.1865250627480703      9.2797891752609321      4.8908800000000001
    46   3      8.6611338229362342      8.0424847951668514      2.9345300000000001
    47   1      8.0424816328891922      9.8984413653079741      2.9345300000000001
    48   1      8.6611338229362342      8.0424847951668514     0.97818000000000005
    49   1      6.8051772527951107      7.4238326051198102      2.9345300000000001
    50   1      8.6611338229362342      8.0424847951668514      4.8908800000000001
    51   2      7.4238294428421518      5.5678760349786875     0.97818000000000005
    52   2      7.4238294428421518      5.5678760349786875      4.8908800000000001
    53   3      9.8984382030303149       4.330571654884606      2.9345300000000001
    54   1      9.2797860129832745      6.1865282250257287      2.9345300000000001
    55   1      9.8984382030303149       4.330571654884606     0.97818000000000005
    56   1      8.0424816328891922      3.7119194648375653      2.9345300000000001
    57   1      9.8984382030303149       4.330571654884606      4.8908800000000001
    58   2      8.6611369852138935      1.8559534078634621     0.97818000000000005
    59   2      8.6611369852138935      1.8559534078634621      4.8908800000000001
    60   3      11.135745745402057     0.61864902776938069      2.9345300000000001
    61   1      10.517093555355016      2.4746055979105033      2.9345300000000001
    62   1      11.135745745402057     0.61864902776938069     0.97818000000000005
    63   1      9.2797891752609338 -3.1622776605583621e-06      2.9345300000000001
    64   1      11.135745745402057     0.61864902776938069      4.8908800000000001
    65   1      9.2797860129832728      12.373050125496137      2.9345300000000001
    66   2      9.8984382030303131      10.517093555355014     0.97818000000000005
    67   2      9.8984382030303131      10.517093555355014      4.8908800000000001
    68   3      12.373046963218478      9.2797891752609338      2.9345300000000001
    69   1      11.754394773171436      11.135745745402055      2.9345300000000001
    70   1      12.373046963218478      9.2797891752609338     0.97818000000000005
    71   1      10.517090393077355      8.6611369852138917      2.9345300000000001
    72   1      12.373046963218478      9.2797891752609338      4.8908800000000001
    73   2      11.135742583124395      6.8051804150727691     0.97818000000000005
    74   2      11.135742583124395      6.8051804150727691      4.8908800000000001
    75   1      11.754394773171436      4.9492238449316464      2.9345300000000001
    76   2      12.373050125496137      3.0932577879575436     0.97818000000000005
    77   2      12.373050125496137      3.0932577879575436      4.8908800000000001
    78   3      3.0954397595430607      12.372499889183269                 10.8254
    79   1      3.0954397595430607      12.372499889183269      8.8690499999999997
    80   1      3.0954397595430607      12.372499889183269      12.781750000000001
    81   2     0.62061280219634529      11.135628741128629      8.8690499999999997
    82   2     0.62061280219634529      11.135628741128629      12.781750000000001
    83   3      1.8574839502509837      8.6608017837819133                 10.8254
    84   1      2.4764650171746831       10.51665716103791                 10.8254
    85   1      1.8574839502509837      8.6608017837819133      8.8690499999999997
    86   1   0.0016380598279673567      9.2797860129832728                 10.8254
    87   1      1.8574839502509837      8.6608017837819133      12.781750000000001
    88   3     0.61952497868124745      4.9491131652135412                 10.8254
    89   1      1.2385092078826061      6.8049590556365578                 10.8254
    90   1     0.61952497868124745      4.9491131652135412      8.8690499999999997
    91   1     0.61952497868124745      4.9491131652135412      12.781750000000001
    92   1   0.0005439117575491019       3.093257787957544                 10.8254
    93   3      6.8071378649444139      11.134544079891192                 10.8254
    94   1      6.8071378649444139      11.134544079891192      8.8690499999999997
    95   1      4.9512951367990574       11.75351882225957                 10.8254
    96   1      6.8071378649444139      11.134544079891192      12.781750000000001
    97   2      4.3323109075976998      9.8976729318365528      8.8690499999999997
    98   2      4.3323109075976998      9.8976729318365528      12.781750000000001
    99   3      5.5691820556523384      7.4228459744898379                 10.8254
   100   1      6.1881662848536969      9.2786918649128545                 10.8254
   101   1      5.5691820556523384      7.4228459744898379      8.8690499999999997
   102   1      3.7133361652293213      8.0418302036911964                 10.8254
   103   1      5.5691820556523384      7.4228459744898379      12.781750000000001
   104   2      3.0943550983056229      6.1859748264351992      8.8690499999999997
   105   2      3.0943550983056229      6.1859748264351992      12.781750000000001
   106   3      4.3312262463602611      3.7111478690884847                 10.8254
   107   1      4.9501978264509798      5.5670000840668212                 10.8254
   108   1      4.3312262463602611      3.7111478690884847      8.8690499999999997
   109   1       2.475370869104264      4.3301289360121826                 10.8254
   110   1      4.3312262463602611      3.7111478690884847      12.781750000000001
   111   2      1.8563961267358859      2.4742862078668262      8.8690499999999997
   112   2      1.8563961267358859      2.4742862078668262      12.781750000000001
   113   3       3.093257787957544  -0.0005439117575490723                 10.8254
   114   1      3.7122420171589026      1.8553019786654674                 10.8254
   115   1       3.093257787957544  -0.0005439117575490723      8.8690499999999997
   116   1      1.2374150598121876     0.61843083061082904                 10.8254
   117   1       3.093257787957544  -0.0005439117575490723      12.781750000000001
   118   2       9.281964822291128       12.37141522794583      8.8690499999999997
   119   2       9.281964822291128       12.37141522794583      12.781750000000001
   120   3      10.518835970345769      9.8965882705991142                 10.8254
   121   1      11.137810712714147      11.752430998744472                 10.8254
   122   1      10.518835970345769      9.8965882705991142      8.8690499999999997
   123   1      8.6629837553674314      10.515559850689833                 10.8254
   124   1      10.518835970345769      9.8965882705991142      12.781750000000001
   125   2      8.0440090129990534      8.6597171225444765      8.8690499999999997
   126   2      8.0440090129990534      8.6597171225444765      12.781750000000001
   127   3      9.2808801610536911      6.1848901651977615                 10.8254
   128   1      9.8998549034220691       8.040732893343117                 10.8254
   129   1      9.2808801610536911      6.1848901651977615      8.8690499999999997
   130   1      7.4250247837976939      6.8038712321214598                 10.8254
   131   1      9.2808801610536911      6.1848901651977615      12.781750000000001
   132   2       6.806053203706977      4.9480190171431229      8.8690499999999997
   133   2       6.806053203706977      4.9480190171431229      12.781750000000001
   134   3      8.0429148649286333      2.4731888975187473                 10.8254
   135   1      8.6618959318523334      4.3290442747747448                 10.8254
   136   1      8.0429148649286333      2.4731888975187473      8.8690499999999997
   137   1      6.1870689745056184      3.0921731267201062                 10.8254
   138   1      8.0429148649286333      2.4731888975187473      12.781750000000001
   139   2      5.5680879075819192      1.2363177494641089      8.8690499999999997
   140   2      5.5680879075819192      1.2363177494641089      12.781750000000001
   141   1      7.4239401225602561     0.61734616937339126                 10.8254
   142   1      12.374681860768783      9.2776040413977565                 10.8254
   143   2      11.755707118400405      7.4217613132524001      8.8690499999999997
   144   2      11.755707118400405      7.4217613132524001      12.781750000000001
   145   1      11.136726051476709      5.5659059359964029                 10.8254
   146   2      10.517741822275351      3.7100600455733859      8.8690499999999997
   147   2      10.517741822275351      3.7100600455733859      12.781750000000001
   148   3      11.754612970329989      1.2352330882266713                 10.8254
   149   1      12.373597199531346      3.0910789786496875                 10.8254
   150   1      11.754612970329989      1.2352330882266713      8.8690499999999997
   151   1      9.8987670799069711      1.8542173174280294                 10.8254
   152   1      11.754612970329989      1.2352330882266713      12.781750000000001
   153   2      9.2797860129832728  -0.0016380598279673827      8.8690499999999997
   154   2      9.2797860129832728  -0.0016380598279673827      12.781750000000001
   155   3      12.371440526167113      9.2819205504038873      18.716280000000001
   156   1      12.371440526167113      9.2819205504038873      16.759930000000001
   157   1      12.371440526167113      9.2819205504038873      20.672630000000002
   158   2      11.133712400866568      11.756314275711159      16.759930000000001
   159   2      11.133712400866568      11.756314275711159      20.672630000000002
   160   3      8.6593186755592946      10.518586150410615      18.716280000000001
   161   1      10.515379600863206       9.900253350407251      18.716280000000001
   162   1      8.6593186755592946      10.518586150410615      16.759930000000001
   163   1        9.27765147556266      12.374647075714522      18.716280000000001
   164   1      8.6593186755592946      10.518586150410615      20.672630000000002
   165   3      4.9471873381184999      11.755248588139681      18.716280000000001
   166   1      6.8032482634224083      11.136915788136319      18.716280000000001
   167   1      4.9471873381184999      11.755248588139681      16.759930000000001
   168   1      4.9471873381184999      11.755248588139681      20.672630000000002
   169   1      3.0911264128145906      12.373581388143046      18.716280000000001
   170   3      11.134778088438045      5.5697892129630899      18.716280000000001
   171   1      11.134778088438045      5.5697892129630899      16.759930000000001
   172   1      11.753107726163748       7.425859625099978      18.716280000000001
   173   1      11.134778088438045      5.5697892129630899      20.672630000000002
   174   2      9.8970468008598402      8.0441924251033416      16.759930000000001
   175   2      9.8970468008598402      8.0441924251033416      20.672630000000002
   176   3      7.4226562378302301      6.8064548129698172      18.716280000000001
   177   1      9.2787171631341376      6.1881220129664536      18.716280000000001
   178   1      7.4226562378302301      6.8064548129698172      16.759930000000001
   179   1      8.0409858755559327      8.6625252251067053      18.716280000000001
   180   1      7.4226562378302301      6.8064548129698172      20.672630000000002
   181   2      6.1849154634190455      9.2808548628324097      16.759930000000001
   182   2      6.1849154634190455      9.2808548628324097      20.672630000000002
   183   3      3.7105249003894318      8.0431172506988844      18.716280000000001
   184   1      5.5665858256933394      7.4247844506955207      18.716280000000001
   185   1      3.7105249003894318      8.0431172506988844      16.759930000000001
   186   1      4.3288545381151353      9.8991876628357733      18.716280000000001
   187   1      3.7105249003894318      8.0431172506988844      20.672630000000002
   188   2      2.4727936128112264      10.517520462839139      16.759930000000001
   189   2      2.4727936128112264      10.517520462839139      20.672630000000002
   190   3  -0.0015969502183849924      9.2797828507056135      18.716280000000001
   191   1      1.8544639750855232      8.6614500507022498      18.716280000000001
   192   1  -0.0015969502183849924      9.2797828507056135      16.759930000000001
   193   1     0.61673268750731947      11.135853262842502      18.716280000000001
   194   1  -0.0015969502183849924      9.2797828507056135      20.672630000000002
   195   2       12.37251570057157      3.0953986499334776      16.759930000000001
   196   2       12.37251570057157      3.0953986499334776      20.672630000000002
   197   3      9.8981124884313179      1.8576673623552733      18.716280000000001
   198   1      11.754182900568205      1.2393377246295696      18.716280000000001
   199   1      9.8981124884313179      1.8576673623552733      16.759930000000001
   200   1      10.516445288434682      3.7137282876591815      18.716280000000001
   201   1      9.8981124884313179      1.8576673623552733      20.672630000000002
   202   2      8.6603843631307722      4.3320610876625452      16.759930000000001
   203   2      8.6603843631307722      4.3320610876625452      20.672630000000002
   204   3      6.1859906378235001      3.0943329623620013      18.716280000000001
   205   1      8.0420515631274085      2.4760001623586376      18.716280000000001
   206   1      6.1859906378235001      3.0943329623620013      16.759930000000001
   207   1      6.8043234378268638      4.9503938876659088      18.716280000000001
   208   1      6.1859906378235001      3.0943329623620013      20.672630000000002
   209   2      4.9482530256899757      5.5687235253916132      16.759930000000001
   210   2      4.9482530256899757      5.5687235253916132      20.672630000000002
   211   3      2.4738593003827036      4.3309954000910684      18.716280000000001
   212   1      4.3299202256866121      3.7126626000877048      18.716280000000001
   213   1      2.4738593003827036      4.3309954000910684      16.759930000000001
   214   1      3.0921921003860677      6.1870563253949777      18.716280000000001
   215   1      2.4738593003827036      4.3309954000910684      20.672630000000002
   216   2      1.2361311750821595      6.8053891253983414      16.759930000000001
   217   2      1.2361311750821595      6.8053891253983414      20.672630000000002
   218   1     0.61779837507879531       4.949328200094433      18.716280000000001
   219   1      9.2797828507056153   0.0015969502183850823      18.716280000000001
   220   2      7.4237219254017051     0.61992975022174857      16.759930000000001
   221   2      7.4237219254017051     0.61992975022174857      20.672630000000002
   222   1      5.5676610000977966      1.2382625502251126      18.716280000000001
   223   2      3.7115905879609081      1.8565921879508163      16.759930000000001
   224   2      3.7115905879609081      1.8565921879508163      20.672630000000002
   225   3       1.237196862653636     0.61886406265027205      18.716280000000001
   226   1       3.093257787957544  0.00053126264690804765      18.716280000000001
   227   1       1.237196862653636     0.61886406265027205      16.759930000000001
   228   1      1.8555296626569997      2.4749249879541804      18.716280000000001
   229   1       1.237196862653636     0.61886406265027205      20.672630000000002
   230   2 -0.00053126264690809037       3.093257787957544      16.759930000000001
   231   2 -0.00053126264690809037       3.093257787957544      20.672630000000002
