(written by ASE)

189 atoms
3 atom types

0.0      12.373047943524554  xlo xhi
0.0      12.373047943524554  ylo yhi
0.0      61.803577947500003  zlo zhi

Masses

     1      15.998999995884349 # O
     2      87.619999977460253 # Sr
     3      47.866999987686484 # Ti

Atoms # atomic

     1   2     0.61865535232470115      1.2373107046494021     0.97818000000000005
     2   2     0.61865535232470115      1.2373107046494021      4.8908800000000001
     3   3      1.8559597324187831      3.7119194648375657      2.9345300000000001
     4   1      2.4746119224658236      1.8559628946964428      2.9345300000000001
     5   1      1.8559597324187831      3.7119194648375657     0.97818000000000005
     6   1      1.8559597324187831      3.7119194648375657      4.8908800000000001
     7   3     0.61865535232470148      7.4238326051198102      2.9345300000000001
     8   1      1.2373075423717421      5.5678760349786884      2.9345300000000001
     9   1     0.61865535232470148      7.4238326051198102     0.97818000000000005
    10   1     0.61865535232470148      7.4238326051198102      4.8908800000000001
    11   3      6.8051804150727699      1.2373012178164213      2.9345300000000001
    12   1      6.8051804150727699      1.2373012178164213     0.97818000000000005
    13   1      4.9492238449316472     0.61864902776938058      2.9345300000000001
    14   1      6.8051804150727699      1.2373012178164213      4.8908800000000001
    15   2      4.3305684926069459      2.4746150847434838     0.97818000000000005
    16   2      4.3305684926069459      2.4746150847434838      4.8908800000000001
    17   3      5.5678728727010283      4.9492238449316472      2.9345300000000001
    18   1      6.1865250627480686      3.0932672747905245      2.9345300000000001
    19   1      5.5678728727010283      4.9492238449316472     0.97818000000000005
    20   1      3.7119163025599051       4.330571654884606      2.9345300000000001
    21   1      5.5678728727010283      4.9492238449316472      4.8908800000000001
    22   2      3.0932641125128644      6.1865282250257287     0.97818000000000005
    23   2      3.0932641125128644      6.1865282250257287      4.8908800000000001
    24   3      4.3305684926069468      8.6611369852138917      2.9345300000000001
    25   1      4.9492206826539871      6.8051804150727699      2.9345300000000001
    26   1      4.3305684926069468      8.6611369852138917     0.97818000000000005
    27   1      2.4746119224658236      8.0424847951668514      2.9345300000000001
    28   1      4.3305684926069468      8.6611369852138917      4.8908800000000001
    29   2      1.8559597324187829      9.8984413653079741     0.97818000000000005
    30   2      1.8559597324187829      9.8984413653079741      4.8908800000000001
    31   1      3.7119163025599056      10.517093555355014      2.9345300000000001
    32   1      1.2373075423717419      11.754397935449097      2.9345300000000001
    33   3      10.517093555355016      2.4746055979105033      2.9345300000000001
    34   1      11.135745745402057     0.61864902776938069      2.9345300000000001
    35   1      10.517093555355016      2.4746055979105033     0.97818000000000005
    36   1      8.6611369852138935      1.8559534078634621      2.9345300000000001
    37   1      10.517093555355016      2.4746055979105033      4.8908800000000001
    38   2      8.0424816328891922      3.7119194648375653     0.97818000000000005
    39   2      8.0424816328891922      3.7119194648375653      4.8908800000000001
    40   3      9.2797860129832745      6.1865282250257287      2.9345300000000001
    41   1      9.8984382030303149       4.330571654884606      2.9345300000000001
    42   1      9.2797860129832745      6.1865282250257287     0.97818000000000005
    43   1      7.4238294428421518      5.5678760349786875      2.9345300000000001
    44   1      9.2797860129832745      6.1865282250257287      4.8908800000000001
    45   2      6.8051772527951107      7.4238326051198102     0.97818000000000005
    46   2      6.8051772527951107      7.4238326051198102      4.8908800000000001
    47   3      8.0424816328891922      9.8984413653079741      2.9345300000000001
    48   1      8.6611338229362342      8.0424847951668514      2.9345300000000001
    49   1      8.0424816328891922      9.8984413653079741     0.97818000000000005
    50   1      6.1865250627480703      9.2797891752609321      2.9345300000000001
    51   1      8.0424816328891922      9.8984413653079741      4.8908800000000001
    52   2      5.5678728727010292      11.135745745402057     0.97818000000000005
    53   2      5.5678728727010292      11.135745745402057      4.8908800000000001
    54   1      7.4238294428421518      11.754397935449097      2.9345300000000001
    55   2      11.754394773171436      4.9492238449316464     0.97818000000000005
    56   2      11.754394773171436      4.9492238449316464      4.8908800000000001
    57   1      11.135742583124395      6.8051804150727691      2.9345300000000001
    58   2      10.517090393077355      8.6611369852138917     0.97818000000000005
    59   2      10.517090393077355      8.6611369852138917      4.8908800000000001
    60   3      11.754394773171436      11.135745745402055      2.9345300000000001
    61   1      11.754394773171436      11.135745745402055     0.97818000000000005
    62   1      9.8984382030303131      10.517093555355014      2.9345300000000001
    63   1      11.754394773171436      11.135745745402055      4.8908800000000001
    64   3      5.5678791972563486      1.2372917309834408                 10.8254
    65   1      7.4238262805644899     0.61863637865873977                 10.8254
    66   1      5.5678791972563486      1.2372917309834408      8.8690499999999997
    67   1      5.5678791972563486      1.2372917309834408      12.781750000000001
    68   3      1.8559628946964428      2.4746055979105033                 10.8254
    69   1      3.7119194648375657      1.8559534078634623                 10.8254
    70   1      1.8559628946964428      2.4746055979105033      8.8690499999999997
    71   1      1.2373107046494023     0.61864902776938069                 10.8254
    72   1      1.8559628946964428      2.4746055979105033      12.781750000000001
    73   2      11.754394773171436      1.2372790818727999      8.8690499999999997
    74   2      11.754394773171436      1.2372790818727999      12.781750000000001
    75   3      10.517096717632676      3.7119004911716038                 10.8254
    76   1      10.517096717632676      3.7119004911716038      8.8690499999999997
    77   1      9.8984445275856334      1.8559439210304816                 10.8254
    78   1      10.517096717632676      3.7119004911716038      12.781750000000001
    79   2      8.0424879574445125      2.4745961110775223      8.8690499999999997
    80   2      8.0424879574445125      2.4745961110775223      12.781750000000001
    81   3      6.8051835773504292      4.9492048712656862                 10.8254
    82   1       8.661140147491551       4.330552681218645                 10.8254
    83   1      6.8051835773504292      4.9492048712656862      8.8690499999999997
    84   1      6.1865313873033889      3.0932483011245635                 10.8254
    85   1      6.8051835773504292      4.9492048712656862      12.781750000000001
    86   2       4.330571654884606      3.7119099780045848      8.8690499999999997
    87   2       4.330571654884606      3.7119099780045848      12.781750000000001
    88   3      3.0932767616235055      6.1865219004704084                 10.8254
    89   1      4.9492270072093074      5.5678570613127274                 10.8254
    90   1      3.0932767616235055      6.1865219004704084      8.8690499999999997
    91   1      2.4746150847434842      4.3305621680516255                 10.8254
    92   1      3.0932767616235055      6.1865219004704084      12.781750000000001
    93   2     0.61865851460236132      4.9492143580986667      8.8690499999999997
    94   2     0.61865851460236132      4.9492143580986667      12.781750000000001
    95   1      1.2373201914823828      6.8051740905174496                 10.8254
    96   3      11.754413746837397       7.423807306898528                 10.8254
    97   1      11.754413746837397       7.423807306898528      8.8690499999999997
    98   1      11.135752069957377       5.567847574479746                 10.8254
    99   1      11.754413746837397       7.423807306898528      12.781750000000001
   100   2      9.2797923375385949      6.1865092513597677      8.8690499999999997
   101   2      9.2797923375385949      6.1865092513597677      12.781750000000001
   102   3      8.0424974442774921      8.6611211738255918                 10.8254
   103   1      9.8984540144186148      8.0424689837785515                 10.8254
   104   1      8.0424974442774921      8.6611211738255918      8.8690499999999997
   105   1      7.4238452542304527      6.8051646036844691                 10.8254
   106   1      8.0424974442774921      8.6611211738255918      12.781750000000001
   107   2      5.5678886840893291      7.4238167937315103      8.8690499999999997
   108   2      5.5678886840893291      7.4238167937315103      12.781750000000001
   109   3      4.3305843039952467      9.8984255539196724                 10.8254
   110   1      6.1865408741363703      9.2797733638726321                 10.8254
   111   1      4.3305843039952467      9.8984255539196724      8.8690499999999997
   112   1      3.7119289516705467      8.0424784706115311                 10.8254
   113   1      4.3305843039952467      9.8984255539196724      12.781750000000001
   114   2      1.8559723815294236      8.6611306606585714      8.8690499999999997
   115   2      1.8559723815294236      8.6611306606585714      12.781750000000001
   116   3     0.61866800143534162      11.135739420846736                 10.8254
   117   1      2.4746245715764643      10.517087230799694                 10.8254
   118   1     0.61866800143534162      11.135739420846736      8.8690499999999997
   119   1     0.61866800143534162      11.135739420846736      12.781750000000001
   120   2      10.517109366743314      9.8984160670866927      8.8690499999999997
   121   2      10.517109366743314      9.8984160670866927      12.781750000000001
   122   1      11.135761556790358      11.754372637227815                 10.8254
   123   1      8.6611496343245324      10.517077743966713                 10.8254
   124   2      6.8051930641834097      11.135729934013755      8.8690499999999997
   125   2      6.8051930641834097      11.135729934013755      12.781750000000001
   126   1      4.9492364940422879      11.754382124060795                 10.8254
   127   3      11.136726051476709      5.5659059359964029      18.716280000000001
   128   1      11.755707118400405      7.4217613132524001      18.716280000000001
   129   1      11.136726051476709      5.5659059359964029      16.759930000000001
   130   1      11.136726051476709      5.5659059359964029      20.672630000000002
   131   3      9.8987670799069711      1.8542173174280294      18.716280000000001
   132   1      10.517741822275351      3.7100600455733859      18.716280000000001
   133   1      9.8987670799069711      1.8542173174280294      16.759930000000001
   134   1      11.754612970329989      1.2352330882266713      18.716280000000001
   135   1      9.8987670799069711      1.8542173174280294      20.672630000000002
   136   2      11.137810712714147      11.752430998744472      16.759930000000001
   137   2      11.137810712714147      11.752430998744472      20.672630000000002
   138   3      8.6629837553674314      10.515559850689833      18.716280000000001
   139   1      8.6629837553674314      10.515559850689833      16.759930000000001
   140   1      10.518835970345769      9.8965882705991142      18.716280000000001
   141   1      8.6629837553674314      10.515559850689833      20.672630000000002
   142   2      9.8998549034220691       8.040732893343117      16.759930000000001
   143   2      9.8998549034220691       8.040732893343117      20.672630000000002
   144   3      7.4250247837976939      6.8038712321214598      18.716280000000001
   145   1      8.0440090129990534      8.6597171225444765      18.716280000000001
   146   1      7.4250247837976939      6.8038712321214598      16.759930000000001
   147   1      9.2808801610536911      6.1848901651977615      18.716280000000001
   148   1      7.4250247837976939      6.8038712321214598      20.672630000000002
   149   2      8.6618959318523334      4.3290442747747448      16.759930000000001
   150   2      8.6618959318523334      4.3290442747747448      20.672630000000002
   151   3      6.1870689745056184      3.0921731267201062      18.716280000000001
   152   1       6.806053203706977      4.9480190171431229      18.716280000000001
   153   1      6.1870689745056184      3.0921731267201062      16.759930000000001
   154   1      8.0429148649286333      2.4731888975187473      18.716280000000001
   155   1      6.1870689745056184      3.0921731267201062      20.672630000000002
   156   2      7.4239401225602561     0.61734616937339126      16.759930000000001
   157   2      7.4239401225602561     0.61734616937339126      20.672630000000002
   158   1      5.5680879075819192      1.2363177494641089      18.716280000000001
   159   3      4.9512951367990574       11.75351882225957      18.716280000000001
   160   1      4.9512951367990574       11.75351882225957      16.759930000000001
   161   1      6.8071378649444139      11.134544079891192      18.716280000000001
   162   1      4.9512951367990574       11.75351882225957      20.672630000000002
   163   2      6.1881662848536969      9.2786918649128545      16.759930000000001
   164   2      6.1881662848536969      9.2786918649128545      20.672630000000002
   165   3      3.7133361652293213      8.0418302036911964      18.716280000000001
   166   1      4.3323109075976998      9.8976729318365528      18.716280000000001
   167   1      3.7133361652293213      8.0418302036911964      16.759930000000001
   168   1      5.5691820556523384      7.4228459744898379      18.716280000000001
   169   1      3.7133361652293213      8.0418302036911964      20.672630000000002
   170   2      4.9501978264509798      5.5670000840668212      16.759930000000001
   171   2      4.9501978264509798      5.5670000840668212      20.672630000000002
   172   3       2.475370869104264      4.3301289360121826      18.716280000000001
   173   1      3.0943550983056229      6.1859748264351992      18.716280000000001
   174   1       2.475370869104264      4.3301289360121826      16.759930000000001
   175   1      4.3312262463602611      3.7111478690884847      18.716280000000001
   176   1       2.475370869104264      4.3301289360121826      20.672630000000002
   177   2      3.7122420171589026      1.8553019786654674      16.759930000000001
   178   2      3.7122420171589026      1.8553019786654674      20.672630000000002
   179   3      1.2374150598121876     0.61843083061082904      18.716280000000001
   180   1      1.8563961267358859      2.4742862078668262      18.716280000000001
   181   1      1.2374150598121876     0.61843083061082904      16.759930000000001
   182   1      1.2374150598121876     0.61843083061082904      20.672630000000002
   183   2      2.4764650171746831       10.51665716103791      16.759930000000001
   184   2      2.4764650171746831       10.51665716103791      20.672630000000002
   185   1     0.62061280219634529      11.135628741128629      18.716280000000001
   186   1      1.8574839502509837      8.6608017837819133      18.716280000000001
   187   2      1.2385092078826061      6.8049590556365578      16.759930000000001
   188   2      1.2385092078826061      6.8049590556365578      20.672630000000002
   189   1     0.61952497868124745      4.9491131652135412      18.716280000000001
