(written by ASE)

1050 atoms
3 atom types

0.0             19.56350655  xlo xhi
0.0      39.127013099999999  ylo yhi
0.0      61.803577947500003  zlo zhi

Masses

     1      15.998999995884349 # O
     2      87.619999977460253 # Sr
     3      47.866999987686484 # Ti

Atoms # atomic

     1   3      2.5432559999999991      37.366292000000001      2.9345300000000001
     2   1      4.1083359999999995      38.540102000000005      2.9345300000000001
     3   1      2.5432559999999991      37.366292000000001     0.97818000000000005
     4   1      1.3694399999999969      38.931380000000004      2.9345300000000001
     5   1      2.5432559999999991      37.366292000000001      4.8908800000000001
     6   1     0.97817599999999871      36.192482000000005      2.9345300000000001
     7   3      11.151203999999996      38.931378000000002      2.9345300000000001
     8   1      11.151203999999996      38.931378000000002     0.97818000000000005
     9   1      11.151203999999996      38.931378000000002      4.8908800000000001
    10   3      8.0210359999999987      36.583752000000004      2.9345300000000001
    11   1      9.5861239999999999      37.757568000000006      2.9345300000000001
    12   1      8.0210359999999987      36.583752000000004     0.97818000000000005
    13   1                6.847226      38.148832000000006      2.9345300000000001
    14   1      8.0210359999999987      36.583752000000004      4.8908800000000001
    15   2      5.2821459999999991       36.97502200000001     0.97818000000000005
    16   2      5.2821459999999991       36.97502200000001      4.8908800000000001
    17   3      4.8908759999999987      34.236132000000005      2.9345300000000001
    18   1      6.4559559999999987      35.409942000000008      2.9345300000000001
    19   1      4.8908759999999987      34.236132000000005     0.97818000000000005
    20   1      3.7170659999999986      35.801212000000007      2.9345300000000001
    21   1      4.8908759999999987      34.236132000000005      4.8908800000000001
    22   2      2.1519859999999982      34.627402000000004     0.97818000000000005
    23   2      2.1519859999999982      34.627402000000004      4.8908800000000001
    24   3      1.7607159999999975      31.888512000000002      2.9345300000000001
    25   1      3.3257959999999978      33.062322000000002      2.9345300000000001
    26   1      1.7607159999999975      31.888512000000002     0.97818000000000005
    27   1     0.58690599999999782      33.453592000000008      2.9345300000000001
    28   1      1.7607159999999975      31.888512000000002      4.8908800000000001
    29   1     0.19563599999999692      30.714702000000003      2.9345300000000001
    30   3      16.628983999999999      38.148838000000005      2.9345300000000001
    31   1      16.628983999999999      38.148838000000005     0.97818000000000005
    32   1      16.628983999999999      38.148838000000005      4.8908800000000001
    33   2      13.890093999999999      38.540108000000004     0.97818000000000005
    34   2      13.890093999999999      38.540108000000004      4.8908800000000001
    35   3      13.498823999999997      35.801218000000006      2.9345300000000001
    36   1      15.063903999999999      36.975028000000002      2.9345300000000001
    37   1      13.498823999999997      35.801218000000006     0.97818000000000005
    38   1      12.325013999999998               37.366298      2.9345300000000001
    39   1      13.498823999999997      35.801218000000006      4.8908800000000001
    40   2      10.759934000000001      36.192488000000004     0.97818000000000005
    41   2      10.759934000000001      36.192488000000004      4.8908800000000001
    42   3               10.368656      33.453592000000008      2.9345300000000001
    43   1      11.933744000000001      34.627408000000003      2.9345300000000001
    44   1               10.368656      33.453592000000008     0.97818000000000005
    45   1      9.1948460000000001      35.018672000000002      2.9345300000000001
    46   1               10.368656      33.453592000000008      4.8908800000000001
    47   2                7.629766      33.844862000000006     0.97818000000000005
    48   2                7.629766      33.844862000000006      4.8908800000000001
    49   3      7.2384959999999996      31.105972000000005      2.9345300000000001
    50   1      8.8035759999999996      32.279782000000004      2.9345300000000001
    51   1      7.2384959999999996      31.105972000000005     0.97818000000000005
    52   1                6.064686      32.671052000000003      2.9345300000000001
    53   1      7.2384959999999996      31.105972000000005      4.8908800000000001
    54   2      4.4996059999999991      31.497242000000004     0.97818000000000005
    55   2      4.4996059999999991      31.497242000000004      4.8908800000000001
    56   3      4.1083359999999987      28.758352000000002      2.9345300000000001
    57   1      5.6734159999999987      29.932162000000005      2.9345300000000001
    58   1      4.1083359999999987      28.758352000000002     0.97818000000000005
    59   1      2.9345259999999986               30.323432      2.9345300000000001
    60   1      4.1083359999999987      28.758352000000002      4.8908800000000001
    61   2      1.3694459999999984      29.149622000000001     0.97818000000000005
    62   2      1.3694459999999984      29.149622000000001      4.8908800000000001
    63   3     0.97817599999999738      26.410732000000003      2.9345300000000001
    64   1      2.5432559999999977      27.584542000000003      2.9345300000000001
    65   1     0.97817599999999738      26.410732000000003     0.97818000000000005
    66   1     0.97817599999999738      26.410732000000003      4.8908800000000001
    67   2               19.367874      37.757568000000006     0.97818000000000005
    68   2               19.367874      37.757568000000006      4.8908800000000001
    69   3      18.976603999999998      35.018678000000001      2.9345300000000001
    70   1      18.976603999999998      35.018678000000001     0.97818000000000005
    71   1      17.802793999999999      36.583758000000003      2.9345300000000001
    72   1      18.976603999999998      35.018678000000001      4.8908800000000001
    73   2               16.237714               35.409948     0.97818000000000005
    74   2               16.237714               35.409948      4.8908800000000001
    75   3      15.846443999999998      32.671058000000002      2.9345300000000001
    76   1               17.411524      33.844868000000005      2.9345300000000001
    77   1      15.846443999999998      32.671058000000002     0.97818000000000005
    78   1      14.672633999999999      34.236138000000004      2.9345300000000001
    79   1      15.846443999999998      32.671058000000002      4.8908800000000001
    80   2      13.107554000000002      33.062328000000001     0.97818000000000005
    81   2      13.107554000000002      33.062328000000001      4.8908800000000001
    82   3      12.716276000000001      30.323432000000004      2.9345300000000001
    83   1      14.281364000000002      31.497248000000003      2.9345300000000001
    84   1      12.716276000000001      30.323432000000004     0.97818000000000005
    85   1      11.542466000000001      31.888512000000002      2.9345300000000001
    86   1      12.716276000000001      30.323432000000004      4.8908800000000001
    87   2       9.977386000000001      30.714702000000003     0.97818000000000005
    88   2       9.977386000000001      30.714702000000003      4.8908800000000001
    89   3      9.5861160000000005      27.975812000000001      2.9345300000000001
    90   1      11.151196000000001      29.149622000000004      2.9345300000000001
    91   1      9.5861160000000005      27.975812000000001     0.97818000000000005
    92   1      8.4123060000000009      29.540892000000003      2.9345300000000001
    93   1      9.5861160000000005      27.975812000000001      4.8908800000000001
    94   2                6.847226      28.367082000000003     0.97818000000000005
    95   2                6.847226      28.367082000000003      4.8908800000000001
    96   3      6.4559559999999996      25.628192000000002      2.9345300000000001
    97   1      8.0210360000000005      26.802002000000002      2.9345300000000001
    98   1      6.4559559999999996      25.628192000000002     0.97818000000000005
    99   1                5.282146               27.193272      2.9345300000000001
   100   1      6.4559559999999996      25.628192000000002      4.8908800000000001
   101   2      3.7170659999999991      26.019462000000001     0.97818000000000005
   102   2      3.7170659999999991      26.019462000000001      4.8908800000000001
   103   3      3.3257959999999982      23.280571999999999      2.9345300000000001
   104   1      4.8908759999999987      24.454382000000003      2.9345300000000001
   105   1      3.3257959999999982      23.280571999999999     0.97818000000000005
   106   1      2.1519859999999986      24.845652000000001      2.9345300000000001
   107   1      3.3257959999999982      23.280571999999999      4.8908800000000001
   108   2     0.58690599999999971      23.671842000000002     0.97818000000000005
   109   2     0.58690599999999971      23.671842000000002      4.8908800000000001
   110   3     0.19563599999999881               20.932952      2.9345300000000001
   111   1      1.7607159999999993               22.106762      2.9345300000000001
   112   1     0.19563599999999881               20.932952     0.97818000000000005
   113   1     0.19563599999999881               20.932952      4.8908800000000001
   114   2               18.585334      32.279788000000003     0.97818000000000005
   115   2               18.585334      32.279788000000003      4.8908800000000001
   116   3      18.194064000000001      29.540898000000002      2.9345300000000001
   117   1      18.194064000000001      29.540898000000002     0.97818000000000005
   118   1      17.020253999999998               31.105978      2.9345300000000001
   119   1      18.194064000000001      29.540898000000002      4.8908800000000001
   120   2      15.455174000000001      29.932168000000004     0.97818000000000005
   121   2      15.455174000000001      29.932168000000004      4.8908800000000001
   122   3      15.063896000000002      27.193272000000004      2.9345300000000001
   123   1      16.628984000000003      28.367088000000003      2.9345300000000001
   124   1      15.063896000000002      27.193272000000004     0.97818000000000005
   125   1               13.890086      28.758352000000002      2.9345300000000001
   126   1      15.063896000000002      27.193272000000004      4.8908800000000001
   127   2               12.325006      27.584542000000003     0.97818000000000005
   128   2               12.325006      27.584542000000003      4.8908800000000001
   129   3      11.933736000000001      24.845652000000001      2.9345300000000001
   130   1      13.498816000000001      26.019462000000004      2.9345300000000001
   131   1      11.933736000000001      24.845652000000001     0.97818000000000005
   132   1               10.759926      26.410732000000003      2.9345300000000001
   133   1      11.933736000000001      24.845652000000001      4.8908800000000001
   134   2      9.1948460000000001      25.236922000000003     0.97818000000000005
   135   2      9.1948460000000001      25.236922000000003      4.8908800000000001
   136   3      8.8035759999999996      22.498032000000002      2.9345300000000001
   137   1      10.368656000000001      23.671842000000002      2.9345300000000001
   138   1      8.8035759999999996      22.498032000000002     0.97818000000000005
   139   1      7.6297659999999992               24.063112      2.9345300000000001
   140   1      8.8035759999999996      22.498032000000002      4.8908800000000001
   141   2      6.0646859999999982      22.889302000000001     0.97818000000000005
   142   2      6.0646859999999982      22.889302000000001      4.8908800000000001
   143   3      5.6734159999999996      20.150411999999999      2.9345300000000001
   144   1      7.2384959999999996      21.324222000000002      2.9345300000000001
   145   1      5.6734159999999996      20.150411999999999     0.97818000000000005
   146   1      4.4996059999999982      21.715492000000001      2.9345300000000001
   147   1      5.6734159999999996      20.150411999999999      4.8908800000000001
   148   2      2.9345259999999986      20.541682000000002     0.97818000000000005
   149   2      2.9345259999999986      20.541682000000002      4.8908800000000001
   150   3      2.5432559999999995               17.802792      2.9345300000000001
   151   1      4.1083360000000004               18.976602      2.9345300000000001
   152   1      2.5432559999999995               17.802792     0.97818000000000005
   153   1      1.3694459999999984      19.367872000000002      2.9345300000000001
   154   1      2.5432559999999995               17.802792      4.8908800000000001
   155   1     0.97817600000000071      16.628982000000001      2.9345300000000001
   156   1      19.367873999999997      27.975818000000004      2.9345300000000001
   157   2      17.802794000000002      26.802008000000004     0.97818000000000005
   158   2      17.802794000000002      26.802008000000004      4.8908800000000001
   159   3      17.411516000000002      24.063112000000004      2.9345300000000001
   160   1      18.976604000000002      25.236928000000006      2.9345300000000001
   161   1      17.411516000000002      24.063112000000004     0.97818000000000005
   162   1      16.237705999999999      25.628192000000006      2.9345300000000001
   163   1      17.411516000000002      24.063112000000004      4.8908800000000001
   164   2      14.672626000000001      24.454382000000006     0.97818000000000005
   165   2      14.672626000000001      24.454382000000006      4.8908800000000001
   166   3      14.281356000000001      21.715492000000005      2.9345300000000001
   167   1      15.846436000000001      22.889302000000004      2.9345300000000001
   168   1      14.281356000000001      21.715492000000005     0.97818000000000005
   169   1      13.107545999999999      23.280572000000003      2.9345300000000001
   170   1      14.281356000000001      21.715492000000005      4.8908800000000001
   171   2      11.542465999999999      22.106762000000003     0.97818000000000005
   172   2      11.542465999999999      22.106762000000003      4.8908800000000001
   173   3      11.151195999999999      19.367872000000002      2.9345300000000001
   174   1      12.716276000000001      20.541682000000002      2.9345300000000001
   175   1      11.151195999999999      19.367872000000002     0.97818000000000005
   176   1      9.9773859999999992      20.932952000000004      2.9345300000000001
   177   1      11.151195999999999      19.367872000000002      4.8908800000000001
   178   2      8.4123059999999992      19.759142000000004     0.97818000000000005
   179   2      8.4123059999999992      19.759142000000004      4.8908800000000001
   180   3      8.0210359999999987      17.020252000000003      2.9345300000000001
   181   1      9.5861159999999987      18.194062000000002      2.9345300000000001
   182   1      8.0210359999999987      17.020252000000003     0.97818000000000005
   183   1      6.8472259999999983      18.585332000000001      2.9345300000000001
   184   1      8.0210359999999987      17.020252000000003      4.8908800000000001
   185   2      5.2821459999999991      17.411522000000001     0.97818000000000005
   186   2      5.2821459999999991      17.411522000000001      4.8908800000000001
   187   3      4.8908759999999987      14.672632000000002      2.9345300000000001
   188   1      6.4559559999999996      15.846442000000001      2.9345300000000001
   189   1      4.8908759999999987      14.672632000000002     0.97818000000000005
   190   1      3.7170659999999982      16.237712000000002      2.9345300000000001
   191   1      4.8908759999999987      14.672632000000002      4.8908800000000001
   192   2      2.1519859999999995      15.063902000000002     0.97818000000000005
   193   2      2.1519859999999995      15.063902000000002      4.8908800000000001
   194   3      1.7607159999999993      12.325012000000001      2.9345300000000001
   195   1                3.325796      13.498822000000002      2.9345300000000001
   196   1      1.7607159999999993      12.325012000000001     0.97818000000000005
   197   1     0.58690599999999893      13.890092000000003      2.9345300000000001
   198   1      1.7607159999999993      12.325012000000001      4.8908800000000001
   199   1     0.19563599999999889      11.151202000000001      2.9345300000000001
   200   1      18.585326000000002      22.498032000000002      2.9345300000000001
   201   2               17.020246      21.324222000000002     0.97818000000000005
   202   2               17.020246      21.324222000000002      4.8908800000000001
   203   3      16.628976000000002      18.585332000000001      2.9345300000000001
   204   1               18.194056      19.759142000000004      2.9345300000000001
   205   1      16.628976000000002      18.585332000000001     0.97818000000000005
   206   1               15.455166      20.150412000000003      2.9345300000000001
   207   1      16.628976000000002      18.585332000000001      4.8908800000000001
   208   2               13.890086      18.976602000000003     0.97818000000000005
   209   2               13.890086      18.976602000000003      4.8908800000000001
   210   3               13.498816      16.237712000000002      2.9345300000000001
   211   1               15.063896      17.411522000000001      2.9345300000000001
   212   1               13.498816      16.237712000000002     0.97818000000000005
   213   1               12.325006               17.802792      2.9345300000000001
   214   1               13.498816      16.237712000000002      4.8908800000000001
   215   2               10.759926      16.628982000000001     0.97818000000000005
   216   2               10.759926      16.628982000000001      4.8908800000000001
   217   3               10.368656      13.890092000000001      2.9345300000000001
   218   1               11.933736      15.063902000000001      2.9345300000000001
   219   1               10.368656      13.890092000000001     0.97818000000000005
   220   1      9.1948459999999983      15.455172000000001      2.9345300000000001
   221   1               10.368656      13.890092000000001      4.8908800000000001
   222   2                7.629766      14.281362000000001     0.97818000000000005
   223   2                7.629766      14.281362000000001      4.8908800000000001
   224   3      7.2384959999999996               11.542472      2.9345300000000001
   225   1      8.8035759999999996      12.716282000000001      2.9345300000000001
   226   1      7.2384959999999996               11.542472     0.97818000000000005
   227   1      6.0646859999999991               13.107552      2.9345300000000001
   228   1      7.2384959999999996               11.542472      4.8908800000000001
   229   2                4.499606      11.933742000000001     0.97818000000000005
   230   2                4.499606      11.933742000000001      4.8908800000000001
   231   3      4.1083359999999995      9.1948520000000009      2.9345300000000001
   232   1      5.6734160000000005      10.368662000000002      2.9345300000000001
   233   1      4.1083359999999995      9.1948520000000009     0.97818000000000005
   234   1                2.934526      10.759932000000001      2.9345300000000001
   235   1      4.1083359999999995      9.1948520000000009      4.8908800000000001
   236   2      1.3694459999999993      9.5861219999999996     0.97818000000000005
   237   2      1.3694459999999993      9.5861219999999996      4.8908800000000001
   238   3      0.9781759999999996      6.8472320000000009      2.9345300000000001
   239   1      2.5432559999999995      8.0210420000000013      2.9345300000000001
   240   1      0.9781759999999996      6.8472320000000009     0.97818000000000005
   241   1      0.9781759999999996      6.8472320000000009      4.8908800000000001
   242   2      19.367866000000003      18.194062000000002     0.97818000000000005
   243   2      19.367866000000003      18.194062000000002      4.8908800000000001
   244   3      18.976596000000001      15.455172000000003      2.9345300000000001
   245   1      18.976596000000001      15.455172000000003     0.97818000000000005
   246   1      17.802786000000001      17.020252000000003      2.9345300000000001
   247   1      18.976596000000001      15.455172000000003      4.8908800000000001
   248   2      16.237705999999999      15.846442000000001     0.97818000000000005
   249   2      16.237705999999999      15.846442000000001      4.8908800000000001
   250   3      15.846436000000001      13.107552000000002      2.9345300000000001
   251   1      17.411516000000002      14.281362000000001      2.9345300000000001
   252   1      15.846436000000001      13.107552000000002     0.97818000000000005
   253   1      14.672626000000001      14.672632000000002      2.9345300000000001
   254   1      15.846436000000001      13.107552000000002      4.8908800000000001
   255   2      13.107545999999999      13.498822000000001     0.97818000000000005
   256   2      13.107545999999999      13.498822000000001      4.8908800000000001
   257   3      12.716275999999999      10.759932000000001      2.9345300000000001
   258   1      14.281356000000001      11.933742000000001      2.9345300000000001
   259   1      12.716275999999999      10.759932000000001     0.97818000000000005
   260   1      11.542465999999999      12.325012000000001      2.9345300000000001
   261   1      12.716275999999999      10.759932000000001      4.8908800000000001
   262   2       9.977386000000001      11.151202000000001     0.97818000000000005
   263   2       9.977386000000001      11.151202000000001      4.8908800000000001
   264   3      9.5861160000000005                8.412312      2.9345300000000001
   265   1      11.151196000000001      9.5861220000000014      2.9345300000000001
   266   1      9.5861160000000005                8.412312     0.97818000000000005
   267   1      8.4123059999999992                9.977392      2.9345300000000001
   268   1      9.5861160000000005                8.412312      4.8908800000000001
   269   2      6.8472260000000009      8.8035820000000022     0.97818000000000005
   270   2      6.8472260000000009      8.8035820000000022      4.8908800000000001
   271   3      6.4559560000000005      6.0646920000000009      2.9345300000000001
   272   1      8.0210360000000005      7.2385020000000013      2.9345300000000001
   273   1      6.4559560000000005      6.0646920000000009     0.97818000000000005
   274   1                5.282146      7.6297720000000009      2.9345300000000001
   275   1      6.4559560000000005      6.0646920000000009      4.8908800000000001
   276   2                3.717066      6.4559620000000004     0.97818000000000005
   277   2                3.717066      6.4559620000000004      4.8908800000000001
   278   3      3.3257960000000004      3.7170720000000008      2.9345300000000001
   279   1      4.8908759999999996      4.8908820000000004      2.9345300000000001
   280   1      3.3257960000000004      3.7170720000000008     0.97818000000000005
   281   1                2.151986      5.2821520000000008      2.9345300000000001
   282   1      3.3257960000000004      3.7170720000000008      4.8908800000000001
   283   2     0.58690599999999993      4.1083420000000004     0.97818000000000005
   284   2     0.58690599999999993      4.1083420000000004      4.8908800000000001
   285   3     0.19563599999999998      1.3694520000000003      2.9345300000000001
   286   1      1.7607160000000002      2.5432620000000004      2.9345300000000001
   287   1     0.19563599999999998      1.3694520000000003     0.97818000000000005
   288   1     0.19563599999999998      1.3694520000000003      4.8908800000000001
   289   2      18.585332000000001      12.716274000000002     0.97818000000000005
   290   2      18.585332000000001      12.716274000000002      4.8908800000000001
   291   3      18.194062000000002      9.9773840000000007      2.9345300000000001
   292   1      18.194062000000002      9.9773840000000007     0.97818000000000005
   293   1      17.020251999999999      11.542464000000001      2.9345300000000001
   294   1      18.194062000000002      9.9773840000000007      4.8908800000000001
   295   2      15.455172000000001      10.368654000000001     0.97818000000000005
   296   2      15.455172000000001      10.368654000000001      4.8908800000000001
   297   3      15.063902000000001      7.6297640000000007      2.9345300000000001
   298   1      16.628982000000001      8.8035740000000011      2.9345300000000001
   299   1      15.063902000000001      7.6297640000000007     0.97818000000000005
   300   1      13.890091999999999      9.1948439999999998      2.9345300000000001
   301   1      15.063902000000001      7.6297640000000007      4.8908800000000001
   302   2      12.325012000000001      8.0210340000000002     0.97818000000000005
   303   2      12.325012000000001      8.0210340000000002      4.8908800000000001
   304   3      11.933742000000001      5.2821440000000006      2.9345300000000001
   305   1      13.498822000000001      6.4559540000000011      2.9345300000000001
   306   1      11.933742000000001      5.2821440000000006     0.97818000000000005
   307   1      10.759932000000001      6.8472240000000006      2.9345300000000001
   308   1      11.933742000000001      5.2821440000000006      4.8908800000000001
   309   2      9.1948520000000009      5.6734140000000011     0.97818000000000005
   310   2      9.1948520000000009      5.6734140000000011      4.8908800000000001
   311   3      8.8035820000000005      2.9345240000000006      2.9345300000000001
   312   1               10.368662       4.108334000000001      2.9345300000000001
   313   1      8.8035820000000005      2.9345240000000006     0.97818000000000005
   314   1      7.6297720000000009      4.4996040000000006      2.9345300000000001
   315   1      8.8035820000000005      2.9345240000000006      4.8908800000000001
   316   2                6.064692      3.3257940000000001     0.97818000000000005
   317   2                6.064692      3.3257940000000001      4.8908800000000001
   318   3      5.6734220000000004     0.58690400000000031      2.9345300000000001
   319   1      7.2385020000000004      1.7607140000000003      2.9345300000000001
   320   1      5.6734220000000004     0.58690400000000031     0.97818000000000005
   321   1      4.4996120000000008      2.1519840000000006      2.9345300000000001
   322   1      5.6734220000000004     0.58690400000000031      4.8908800000000001
   323   2      2.9345320000000004     0.97817400000000021     0.97818000000000005
   324   2      2.9345320000000004     0.97817400000000021      4.8908800000000001
   325   1      19.367872000000002      8.4123040000000007      2.9345300000000001
   326   2               17.802792      7.2384940000000011     0.97818000000000005
   327   2               17.802792      7.2384940000000011      4.8908800000000001
   328   3      17.411522000000001      4.4996040000000006      2.9345300000000001
   329   1               18.976602      5.6734140000000011      2.9345300000000001
   330   1      17.411522000000001      4.4996040000000006     0.97818000000000005
   331   1      16.237712000000002      6.0646840000000006      2.9345300000000001
   332   1      17.411522000000001      4.4996040000000006      4.8908800000000001
   333   2      14.672632000000002      4.8908740000000011     0.97818000000000005
   334   2      14.672632000000002      4.8908740000000011      4.8908800000000001
   335   3      14.281362000000001       2.151984000000001      2.9345300000000001
   336   1      15.846442000000001      3.3257940000000015      2.9345300000000001
   337   1      14.281362000000001       2.151984000000001     0.97818000000000005
   338   1               13.107552      3.7170640000000006      2.9345300000000001
   339   1      14.281362000000001       2.151984000000001      4.8908800000000001
   340   2      11.542472000000002       2.543254000000001     0.97818000000000005
   341   2      11.542472000000002       2.543254000000001      4.8908800000000001
   342   1      12.716282000000001     0.97817400000000154      2.9345300000000001
   343   1      9.9773920000000018      1.3694440000000008      2.9345300000000001
   344   2                8.412312     0.19563400000000025     0.97818000000000005
   345   2                8.412312     0.19563400000000025      4.8908800000000001
   346   1      18.585332000000001      2.9345240000000001      2.9345300000000001
   347   2      17.020252000000003      1.7607140000000006     0.97818000000000005
   348   2      17.020252000000003      1.7607140000000006      4.8908800000000001
   349   1      18.194062000000002     0.19563399999999961      2.9345300000000001
   350   1      15.455172000000001     0.58690400000000009      2.9345300000000001
   351   2      18.585399999999996      38.148800000000001      8.8690499999999997
   352   2      18.585399999999996      38.148800000000001      12.781750000000001
   353   3               16.629044      36.192458000000002                 10.8254
   354   1      18.585394000000001      36.192458000000002                 10.8254
   355   1               16.629044      36.192458000000002      8.8690499999999997
   356   1               16.629044       38.14880800000001                 10.8254
   357   1               16.629044      36.192458000000002      12.781750000000001