(written by ASE)

525 atoms
3 atom types

0.0             19.56350655  xlo xhi
0.0             19.56350655  ylo yhi
0.0      61.803577947500003  zlo zhi

Masses

     1      15.998999995884349 # O
     2      87.619999977460253 # Sr
     3      47.866999987686484 # Ti

Atoms # atomic

     1   3      1.7607159999999999      2.5432620000000004      2.9345300000000001
     2   1     0.58690599999999982      4.1083420000000004      2.9345300000000001
     3   1      1.7607159999999999      2.5432620000000004     0.97818000000000005
     4   1                0.195636      1.3694520000000001      2.9345300000000001
     5   1      1.7607159999999999      2.5432620000000004      4.8908800000000001
     6   1      2.9345320000000004      0.9781740000000001      2.9345300000000001
     7   3     0.19563599999999887      11.151202000000001      2.9345300000000001
     8   1     0.19563599999999887      11.151202000000001     0.97818000000000005
     9   1     0.19563599999999887      11.151202000000001      4.8908800000000001
    10   3      2.5432559999999991      8.0210420000000013      2.9345300000000001
    11   1      1.3694459999999993      9.5861220000000014      2.9345300000000001
    12   1      2.5432559999999991      8.0210420000000013     0.97818000000000005
    13   1     0.97817599999999971      6.8472320000000009      2.9345300000000001
    14   1      2.5432559999999991      8.0210420000000013      4.8908800000000001
    15   2                2.151986      5.2821520000000008     0.97818000000000005
    16   2                2.151986      5.2821520000000008      4.8908800000000001
    17   3      4.8908759999999996      4.8908820000000004      2.9345300000000001
    18   1      3.7170659999999995      6.4559620000000013      2.9345300000000001
    19   1      4.8908759999999996      4.8908820000000004     0.97818000000000005
    20   1                3.325796      3.7170720000000008      2.9345300000000001
    21   1      4.8908759999999996      4.8908820000000004      4.8908800000000001
    22   2      4.4996119999999999      2.1519840000000006     0.97818000000000005
    23   2      4.4996119999999999      2.1519840000000006      4.8908800000000001
    24   3      7.2385020000000004      1.7607140000000006      2.9345300000000001
    25   1                6.064692      3.3257940000000006      2.9345300000000001
    26   1      7.2385020000000004      1.7607140000000006     0.97818000000000005
    27   1      5.6734220000000004     0.58690400000000054      2.9345300000000001
    28   1      7.2385020000000004      1.7607140000000006      4.8908800000000001
    29   1                8.412312     0.19563400000000039      2.9345300000000001
    30   3     0.97817600000000082      16.628982000000001      2.9345300000000001
    31   1     0.97817600000000082      16.628982000000001     0.97818000000000005
    32   1     0.97817600000000082      16.628982000000001      4.8908800000000001
    33   2     0.58690599999999937      13.890092000000003     0.97818000000000005
    34   2     0.58690599999999937      13.890092000000003      4.8908800000000001
    35   3      3.3257960000000009      13.498822000000002      2.9345300000000001
    36   1      2.1519860000000004      15.063902000000002      2.9345300000000001
    37   1      3.3257960000000009      13.498822000000002     0.97818000000000005
    38   1      1.7607159999999997      12.325012000000001      2.9345300000000001
    39   1      3.3257960000000009      13.498822000000002      4.8908800000000001
    40   2      2.9345260000000004      10.759932000000001     0.97818000000000005
    41   2      2.9345260000000004      10.759932000000001      4.8908800000000001
    42   3      5.6734160000000013      10.368662000000002      2.9345300000000001
    43   1      4.4996060000000009      11.933742000000002      2.9345300000000001
    44   1      5.6734160000000013      10.368662000000002     0.97818000000000005
    45   1      4.1083360000000004      9.1948520000000009      2.9345300000000001
    46   1      5.6734160000000013      10.368662000000002      4.8908800000000001
    47   2                5.282146      7.6297720000000018     0.97818000000000005
    48   2                5.282146      7.6297720000000018      4.8908800000000001
    49   3      8.0210360000000023      7.2385020000000013      2.9345300000000001
    50   1      6.8472260000000009      8.8035820000000022      2.9345300000000001
    51   1      8.0210360000000023      7.2385020000000013     0.97818000000000005
    52   1      6.4559560000000005      6.0646920000000009      2.9345300000000001
    53   1      8.0210360000000023      7.2385020000000013      4.8908800000000001
    54   2      7.6297720000000009      4.4996040000000015     0.97818000000000005
    55   2      7.6297720000000009      4.4996040000000015      4.8908800000000001
    56   3      10.368662000000002       4.108334000000001      2.9345300000000001
    57   1      9.1948520000000009       5.673414000000002      2.9345300000000001
    58   1      10.368662000000002       4.108334000000001     0.97818000000000005
    59   1      8.8035820000000005       2.934524000000001      2.9345300000000001
    60   1      10.368662000000002       4.108334000000001      4.8908800000000001
    61   2      9.9773920000000018      1.3694440000000008     0.97818000000000005
    62   2      9.9773920000000018      1.3694440000000008      4.8908800000000001
    63   3      12.716282000000001     0.97817400000000154      2.9345300000000001
    64   1      11.542472000000002      2.5432540000000015      2.9345300000000001
    65   1      12.716282000000001     0.97817400000000154     0.97818000000000005
    66   1      12.716282000000001     0.97817400000000154      4.8908800000000001
    67   2      1.3694459999999986      19.367872000000002     0.97818000000000005
    68   2      1.3694459999999986      19.367872000000002      4.8908800000000001
    69   3      4.1083359999999995      18.976602000000003      2.9345300000000001
    70   1      4.1083359999999995      18.976602000000003     0.97818000000000005
    71   1      2.5432559999999991               17.802792      2.9345300000000001
    72   1      4.1083359999999995      18.976602000000003      4.8908800000000001
    73   2      3.7170659999999986      16.237712000000002     0.97818000000000005
    74   2      3.7170659999999986      16.237712000000002      4.8908800000000001
    75   3      6.4559559999999987      15.846442000000001      2.9345300000000001
    76   1      5.2821459999999982      17.411522000000001      2.9345300000000001
    77   1      6.4559559999999987      15.846442000000001     0.97818000000000005
    78   1      4.8908759999999987               14.672632      2.9345300000000001
    79   1      6.4559559999999987      15.846442000000001      4.8908800000000001
    80   2      6.0646859999999991               13.107552     0.97818000000000005
    81   2      6.0646859999999991               13.107552      4.8908800000000001
    82   3      8.8035759999999996      12.716282000000001      2.9345300000000001
    83   1      7.6297659999999992      14.281362000000001      2.9345300000000001
    84   1      8.8035759999999996      12.716282000000001     0.97818000000000005
    85   1      7.2384959999999996               11.542472      2.9345300000000001
    86   1      8.8035759999999996      12.716282000000001      4.8908800000000001
    87   2      8.4123059999999992                9.977392     0.97818000000000005
    88   2      8.4123059999999992                9.977392      4.8908800000000001
    89   3      11.151196000000001      9.5861220000000014      2.9345300000000001
    90   1      9.9773859999999992      11.151202000000001      2.9345300000000001
    91   1      11.151196000000001      9.5861220000000014     0.97818000000000005
    92   1      9.5861160000000005                8.412312      2.9345300000000001
    93   1      11.151196000000001      9.5861220000000014      4.8908800000000001
    94   2      10.759931999999999      6.8472240000000006     0.97818000000000005
    95   2      10.759931999999999      6.8472240000000006      4.8908800000000001
    96   3      13.498822000000001      6.4559540000000011      2.9345300000000001
    97   1      12.325011999999999       8.021034000000002      2.9345300000000001
    98   1      13.498822000000001      6.4559540000000011     0.97818000000000005
    99   1      11.933742000000001      5.2821439999999997      2.9345300000000001
   100   1      13.498822000000001      6.4559540000000011      4.8908800000000001
   101   2               13.107552      3.7170640000000001     0.97818000000000005
   102   2               13.107552      3.7170640000000001      4.8908800000000001
   103   3               15.846442      3.3257940000000015      2.9345300000000001
   104   1               14.672632      4.8908740000000011      2.9345300000000001
   105   1               15.846442      3.3257940000000015     0.97818000000000005
   106   1               14.281362      2.1519840000000001      2.9345300000000001
   107   1               15.846442      3.3257940000000015      4.8908800000000001
   108   2      15.455172000000001     0.58690399999999976     0.97818000000000005
   109   2      15.455172000000001     0.58690399999999976      4.8908800000000001
   110   3      18.194062000000002     0.19563400000000067      2.9345300000000001
   111   1      17.020251999999999      1.7607140000000012      2.9345300000000001
   112   1      18.194062000000002     0.19563400000000067     0.97818000000000005
   113   1      18.194062000000002     0.19563400000000067      4.8908800000000001
   114   2      6.8472259999999983      18.585332000000001     0.97818000000000005
   115   2      6.8472259999999983      18.585332000000001      4.8908800000000001
   116   3      9.5861159999999987      18.194062000000002      2.9345300000000001
   117   1      9.5861159999999987      18.194062000000002     0.97818000000000005
   118   1      8.0210359999999987      17.020252000000003      2.9345300000000001
   119   1      9.5861159999999987      18.194062000000002      4.8908800000000001
   120   2      9.1948460000000001      15.455172000000001     0.97818000000000005
   121   2      9.1948460000000001      15.455172000000001      4.8908800000000001
   122   3               11.933736      15.063902000000001      2.9345300000000001
   123   1               10.759926      16.628982000000001      2.9345300000000001
   124   1               11.933736      15.063902000000001     0.97818000000000005
   125   1               10.368656      13.890092000000001      2.9345300000000001
   126   1               11.933736      15.063902000000001      4.8908800000000001
   127   2      11.542465999999999      12.325012000000001     0.97818000000000005
   128   2      11.542465999999999      12.325012000000001      4.8908800000000001
   129   3      14.281356000000001      11.933742000000001      2.9345300000000001
   130   1      13.107545999999999      13.498822000000001      2.9345300000000001
   131   1      14.281356000000001      11.933742000000001     0.97818000000000005
   132   1      12.716276000000001      10.759932000000001      2.9345300000000001
   133   1      14.281356000000001      11.933742000000001      4.8908800000000001
   134   2      13.890091999999999      9.1948440000000016     0.97818000000000005
   135   2      13.890091999999999      9.1948440000000016      4.8908800000000001
   136   3      16.628982000000001      8.8035740000000011      2.9345300000000001
   137   1      15.455171999999999      10.368654000000001      2.9345300000000001
   138   1      16.628982000000001      8.8035740000000011     0.97818000000000005
   139   1      15.063902000000001      7.6297640000000007      2.9345300000000001
   140   1      16.628982000000001      8.8035740000000011      4.8908800000000001
   141   2      16.237712000000002      6.0646840000000006     0.97818000000000005
   142   2      16.237712000000002      6.0646840000000006      4.8908800000000001
   143   3               18.976602      5.6734140000000011      2.9345300000000001
   144   1               17.802792      7.2384940000000002      2.9345300000000001
   145   1               18.976602      5.6734140000000011     0.97818000000000005
   146   1      17.411522000000001      4.4996040000000015      2.9345300000000001
   147   1               18.976602      5.6734140000000011      4.8908800000000001
   148   2      18.585332000000001      2.9345240000000006     0.97818000000000005
   149   2      18.585332000000001      2.9345240000000006      4.8908800000000001
   150   1      11.151196000000001      19.367872000000002      2.9345300000000001
   151   2      12.325006000000002      17.802792000000004     0.97818000000000005
   152   2      12.325006000000002      17.802792000000004      4.8908800000000001
   153   3               15.063896      17.411522000000001      2.9345300000000001
   154   1               13.890086      18.976602000000003      2.9345300000000001
   155   1               15.063896      17.411522000000001     0.97818000000000005
   156   1      13.498816000000001      16.237712000000002      2.9345300000000001
   157   1               15.063896      17.411522000000001      4.8908800000000001
   158   2      14.672626000000001      14.672632000000002     0.97818000000000005
   159   2      14.672626000000001      14.672632000000002      4.8908800000000001
   160   3      17.411515999999999      14.281362000000001      2.9345300000000001
   161   1      16.237705999999999      15.846442000000001      2.9345300000000001
   162   1      17.411515999999999      14.281362000000001     0.97818000000000005
   163   1      15.846436000000002      13.107552000000002      2.9345300000000001
   164   1      17.411515999999999      14.281362000000001      4.8908800000000001
   165   2      17.020252000000003      11.542464000000002     0.97818000000000005
   166   2      17.020252000000003      11.542464000000002      4.8908800000000001
   167   1      18.585332000000001      12.716274000000002      2.9345300000000001
   168   1      18.194062000000002      9.9773840000000025      2.9345300000000001
   169   2      19.367872000000002      8.4123040000000024     0.97818000000000005
   170   2      19.367872000000002      8.4123040000000024      4.8908800000000001
   171   1      16.628976000000002      18.585332000000005      2.9345300000000001
   172   2      17.802786000000001      17.020252000000003     0.97818000000000005
   173   2      17.802786000000001      17.020252000000003      4.8908800000000001
   174   1      19.367866000000003      18.194062000000002      2.9345300000000001
   175   1      18.976596000000001      15.455172000000003      2.9345300000000001
   176   2     0.98145199999999888      18.585164000000002      8.8690499999999997
   177   2     0.98145199999999888      18.585164000000002      12.781750000000001
   178   3      2.9374519999999991      16.628464000000001                 10.8254
   179   1                2.937802      18.584814000000001                 10.8254
   180   1      2.9374519999999991      16.628464000000001      8.8690499999999997
   181   1     0.98110799999999854      16.628806000000001                 10.8254
   182   1      2.9374519999999991      16.628464000000001      12.781750000000001
   183   2     0.98075799999999935               14.672456      8.8690499999999997
   184   2     0.98075799999999935               14.672456      12.781750000000001
   185   3      2.9367659999999995      12.715762000000003                 10.8254
   186   1      2.9371159999999996               14.672112                 10.8254
   187   1      2.9367659999999995      12.715762000000003      8.8690499999999997
   188   1     0.98042199999999902      12.716104000000001                 10.8254
   189   1      2.9367659999999995      12.715762000000003      12.781750000000001
   190   2     0.98007199999999983      10.759754000000001      8.8690499999999997
   191   2     0.98007199999999983      10.759754000000001      12.781750000000001
   192   3      2.9360799999999996      8.8030600000000003                 10.8254
   193   1      2.9364300000000001      10.759410000000003                 10.8254
   194   1      2.9360799999999996      8.8030600000000003      8.8690499999999997
   195   1     0.97973000000000032      8.8034100000000013                 10.8254
   196   1      2.9360799999999996      8.8030600000000003      12.781750000000001
   197   2     0.97938599999999987      6.8470520000000015      8.8690499999999997
   198   2     0.97938599999999987      6.8470520000000015      12.781750000000001
   199   3      2.9353940000000005      4.8903580000000009                 10.8254
   200   1                 2.93573      6.8467100000000007                 10.8254
   201   1      2.9353940000000005      4.8903580000000009      8.8690499999999997
   202   1     0.97903599999999968       4.890702000000001                 10.8254
   203   1      2.9353940000000005      4.8903580000000009      12.781750000000001
   204   2     0.97869399999999984                2.934358      8.8690499999999997
   205   2     0.97869399999999984                2.934358      12.781750000000001
   206   3      2.9346939999999999     0.97765800000000025                 10.8254
   207   1                2.935044      2.9340080000000004                 10.8254
   208   1      2.9346939999999999     0.97765800000000025      8.8690499999999997
   209   1     0.97835000000000005     0.97800000000000009                 10.8254
   210   1      2.9346939999999999     0.97765800000000025      12.781750000000001
   211   2      4.8941520000000001      18.584464000000001      8.8690499999999997
   212   2      4.8941520000000001      18.584464000000001      12.781750000000001
   213   3      6.8501599999999998      16.627770000000002                 10.8254
   214   1      6.8505039999999999      18.584128000000003                 10.8254
   215   1      6.8501599999999998      16.627770000000002      8.8690499999999997
   216   1      4.8938100000000002      16.628120000000003                 10.8254
   217   1      6.8501599999999998      16.627770000000002      12.781750000000001
   218   2      4.8934600000000001                14.67177      8.8690499999999997
   219   2      4.8934600000000001                14.67177      12.781750000000001
   220   3      6.8494680000000008      12.715076000000002                 10.8254
   221   1      6.8498100000000006      14.671420000000003                 10.8254
   222   1      6.8494680000000008      12.715076000000002      8.8690499999999997
   223   1      4.8931159999999991      12.715412000000001                 10.8254
   224   1      6.8494680000000008      12.715076000000002      12.781750000000001
   225   2      4.8927740000000002      10.759068000000001      8.8690499999999997
   226   2      4.8927740000000002      10.759068000000001      12.781750000000001
   227   3      6.8487820000000008      8.8023740000000004                 10.8254
   228   1      6.8491240000000007      10.758718000000002                 10.8254
   229   1      6.8487820000000008      8.8023740000000004      8.8690499999999997
   230   1      4.8924240000000001      8.8027180000000023                 10.8254
   231   1      6.8487820000000008      8.8023740000000004      12.781750000000001
   232   2      4.8920879999999993      6.8463660000000015      8.8690499999999997
   233   2      4.8920879999999993      6.8463660000000015      12.781750000000001
   234   3      6.8480879999999997       4.889666000000001                 10.8254
   235   1      6.8484320000000007      6.8460240000000017                 10.8254
   236   1      6.8480879999999997       4.889666000000001      8.8690499999999997
   237   1       4.891738000000001       4.890016000000001                 10.8254
   238   1      6.8480879999999997       4.889666000000001      12.781750000000001
   239   2                4.891394      2.9336580000000008      8.8690499999999997
   240   2                4.891394      2.9336580000000008      12.781750000000001
   241   3      6.8474020000000007     0.97696400000000005                 10.8254
   242   1      6.8477460000000008      2.9333220000000013                 10.8254
   243   1      6.8474020000000007     0.97696400000000005      8.8690499999999997
   244   1      4.8910520000000002     0.97731400000000046                 10.8254
   245   1      6.8474020000000007     0.97696400000000005      12.781750000000001
   246   2      8.8068540000000013      18.583778000000002      8.8690499999999997
   247   2      8.8068540000000013      18.583778000000002      12.781750000000001
   248   3               10.762862               16.627084                 10.8254
   249   1      10.763203999999998      18.583428000000001                 10.8254
   250   1               10.762862               16.627084      8.8690499999999997
   251   1      8.8065040000000003      16.627428000000002                 10.8254
   252   1               10.762862               16.627084      12.781750000000001
   253   2      8.8061680000000013      14.671076000000001      8.8690499999999997
   254   2      8.8061680000000013      14.671076000000001      12.781750000000001
   255   3               10.762176      12.714382000000002                 10.8254
   256   1      10.762512000000001      14.670734000000001                 10.8254
   257   1               10.762176      12.714382000000002      8.8690499999999997
   258   1      8.8058180000000004      12.714726000000001                 10.8254
   259   1               10.762176      12.714382000000002      12.781750000000001
   260   2      8.8054760000000005      10.758381999999999      8.8690499999999997
   261   2      8.8054760000000005      10.758381999999999      12.781750000000001
   262   3      10.761476000000002      8.8016820000000013                 10.8254
   263   1      10.761826000000001      10.758032000000002                 10.8254
   264   1      10.761476000000002      8.8016820000000013      8.8690499999999997
   265   1      8.8051320000000004      8.8020240000000012                 10.8254
   266   1      10.761476000000002      8.8016820000000013      12.781750000000001
   267   2      8.8047820000000012      6.8456740000000016      8.8690499999999997
   268   2      8.8047820000000012      6.8456740000000016      12.781750000000001
   269   3      10.760790000000002      4.8889800000000019                 10.8254
   270   1      10.761140000000001      6.8453300000000015                 10.8254
   271   1      10.760790000000002      4.8889800000000019      8.8690499999999997
   272   1      8.8044399999999996      4.8893300000000011                 10.8254
   273   1      10.760790000000002      4.8889800000000019      12.781750000000001
   274   2      8.8040960000000013      2.9329720000000008      8.8690499999999997
   275   2      8.8040960000000013      2.9329720000000008      12.781750000000001
   276   3               10.760104     0.97627800000000042                 10.8254
   277   1      10.760440000000001       2.932630000000001                 10.8254
   278   1               10.760104     0.97627800000000042      8.8690499999999997
   279   1      8.8037460000000003      0.9766220000000011                 10.8254
   280   1               10.760104     0.97627800000000042      12.781750000000001
   281   2      12.719556000000001      18.583092000000004      8.8690499999999997
   282   2      12.719556000000001      18.583092000000004      12.781750000000001
   283   3      14.675564000000001      16.626398000000002                 10.8254
   284   1      14.675905999999999      18.582742000000003                 10.8254
   285   1      14.675564000000001      16.626398000000002      8.8690499999999997
   286   1      12.719211999999999      16.626734000000003                 10.8254
   287   1      14.675564000000001      16.626398000000002      12.781750000000001
   288   2      12.718869999999999      14.670390000000001      8.8690499999999997
   289   2      12.718869999999999      14.670390000000001      12.781750000000001
   290   3      14.674870000000002      12.713690000000003                 10.8254
   291   1      14.675220000000003      14.670040000000004                 10.8254
   292   1      14.674870000000002      12.713690000000003      8.8690499999999997
   293   1                12.71852      12.714040000000001                 10.8254
   294   1      14.674870000000002      12.713690000000003      12.781750000000001
   295   2               12.718176      10.757682000000001      8.8690499999999997
   296   2               12.718176      10.757682000000001      12.781750000000001
   297   3               14.674184      8.8009880000000003                 10.8254
   298   1      14.674528000000002      10.757346000000002                 10.8254
   299   1               14.674184      8.8009880000000003      8.8690499999999997
   300   1               12.717834      8.8013379999999994                 10.8254
   301   1               14.674184      8.8009880000000003      12.781750000000001
   302   2      12.717484000000001      6.8449880000000016      8.8690499999999997
   303   2      12.717484000000001      6.8449880000000016      12.781750000000001
   304   3      14.673492000000001      4.8882940000000019                 10.8254
   305   1      14.673834000000001      6.8446380000000016                 10.8254
   306   1      14.673492000000001      4.8882940000000019      8.8690499999999997
   307   1      12.717140000000001      4.8886300000000009                 10.8254
   308   1      14.673492000000001      4.8882940000000019      12.781750000000001
   309   2      12.716798000000001      2.9322860000000004      8.8690499999999997
   310   2      12.716798000000001      2.9322860000000004      12.781750000000001
   311   3               14.672798     0.97558599999999951                 10.8254
   312   1      14.673148000000001      2.9319360000000021                 10.8254
   313   1               14.672798     0.97558599999999951      8.8690499999999997
   314   1      12.716448000000002     0.97593600000000102                 10.8254
   315   1               14.672798     0.97558599999999951      12.781750000000001
   316   2      16.632263999999999      18.582398000000001      8.8690499999999997
   317   2      16.632263999999999      18.582398000000001      12.781750000000001
   318   3      18.588263999999999               16.625698                 10.8254
   319   1      18.588608000000001      18.582056000000001                 10.8254
   320   1      18.588263999999999               16.625698      8.8690499999999997
   321   1      16.631914000000002      16.626048000000001                 10.8254
   322   1      18.588263999999999               16.625698      12.781750000000001
   323   2      16.631564000000001      14.669698000000004      8.8690499999999997
   324   2      16.631564000000001      14.669698000000004      12.781750000000001
   325   3      18.587571999999998      12.713004000000002                 10.8254
   326   1      18.587922000000002      14.669354000000002                 10.8254
   327   1      18.587571999999998      12.713004000000002      8.8690499999999997
   328   1               16.631228      12.713346000000001                 10.8254
   329   1      18.587571999999998      12.713004000000002      12.781750000000001
   330   2      16.630878000000003      10.756996000000001      8.8690499999999997
   331   2      16.630878000000003      10.756996000000001      12.781750000000001
   332   3      18.586886000000003      8.8003020000000021                 10.8254
   333   1               18.587228      10.756646000000002                 10.8254
   334   1      18.586886000000003      8.8003020000000021      8.8690499999999997
   335   1      16.630528000000002      8.8006460000000022                 10.8254
   336   1      18.586886000000003      8.8003020000000021      12.781750000000001
   337   2      16.630192000000001      6.8442940000000023      8.8690499999999997
   338   2      16.630192000000001      6.8442940000000023      12.781750000000001
   339   3               18.586192      4.8875940000000018                 10.8254
   340   1      18.586536000000002      6.8439520000000025                 10.8254
   341   1               18.586192      4.8875940000000018      8.8690499999999997
   342   1      16.629842000000004      4.8879440000000018                 10.8254
   343   1               18.586192      4.8875940000000018      12.781750000000001
   344   2      16.629492000000003      2.9315940000000018      8.8690499999999997
   345   2      16.629492000000003      2.9315940000000018      12.781750000000001
   346   3      18.585500000000003     0.97490000000000188                 10.8254
   347   1      18.585850000000001      2.9312500000000012                 10.8254
   348   1      18.585500000000003     0.97490000000000188      8.8690499999999997
   349   1      16.629156000000002     0.97524200000000039                 10.8254
   350   1      18.585500000000003     0.97490000000000188      12.781750000000001
   351   3      2.9313479999999994               18.585836      18.716280000000001
   352   1      2.9313479999999994               18.585836      16.759930000000001
   353   1      2.9313479999999994               18.585836      20.672630000000002
   354   2     0.19252799999999914      18.194096000000002      16.759930000000001
   355   2     0.19252799999999914      18.194096000000002      20.672630000000002
   356   3     0.58425999999999956      15.455270000000002      18.716280000000001
   357   1      1.7578079999999996      17.020556000000003      18.716280000000001
   358   1     0.58425999999999956      15.455270000000002      16.759930000000001