(written by ASE)

13656 atoms
3 atom types

0.0      95.185389154878777  xlo xhi
0.0      95.185389154878777  ylo yhi
0.0                      50  zlo zhi

Masses

     1       137.3269999646734 # Ba
     2      15.998999995884349 # O
     3      47.866999987686484 # Ti

Atoms # atomic

     1   1      34.753541556052852       14.26108453510488      11.292730000000001
     2   1      34.753541556052852       14.26108453510488      7.1900700000000004
     3   1      34.753541556052852       14.26108453510488      3.0874199999999998
     4   1      39.102962784950712      7.5696672598774057      11.292730000000001
     5   1      8.5733920085939666     0.37605244245603908      22.492730000000002
     6   1      8.5733920085939666     0.37605244245603908      18.390070000000001
     7   1      8.5733920085939666     0.37605244245603908      14.287419999999999
     8   1      93.136145963423729      85.524659232074299      11.292730000000001
     9   1      93.136145963423729      85.524659232074299      7.1900700000000004
    10   1      93.136145963423729      85.524659232074299      3.0874199999999998
    11   1      90.961435348974803      88.870367869688025      11.292730000000001
    12   1      90.961435348974803      88.870367869688025      7.1900700000000004
    13   1      90.961435348974803      88.870367869688025      3.0874199999999998
    14   1      53.241022488235792      61.768025926870699      14.287419999999999
    15   1      53.824077855898501      36.175462277155184      11.292730000000001
    16   1      53.824077855898501      36.175462277155184      7.1900700000000004
    17   1      32.578830941603925      17.606793172718614      3.0874199999999998
    18   1      1.8821482911950667      4.7257428117547295      22.492730000000002
    19   1      1.8821482911950667      4.7257428117547295      18.390070000000001
    20   1      1.8821482911950667      4.7257428117547295      14.287419999999999
    21   1       83.26630548246321      93.387074530466577      11.292730000000001
    22   1       83.26630548246321      93.387074530466577      7.1900700000000004
    23   1       83.26630548246321      93.387074530466577      3.0874199999999998
    24   1      5.2277701498945151       2.550897627105384      22.492730000000002
    25   1      5.2277701498945151       2.550897627105384      18.390070000000001
    26   1      5.2277701498945151       2.550897627105384      14.287419999999999
    27   1      94.307143986588542      91.045078484136951      11.292730000000001
    28   1      94.307143986588542      91.045078484136951      7.1900700000000004
    29   1      94.307143986588542      91.045078484136951      3.0874199999999998
    30   1      92.132433372139616      94.390787121750691      11.292730000000001
    31   1      92.132433372139616      94.390787121750691      7.1900700000000004
    32   1      36.928252170501786      10.915375897491142      3.0874199999999998
    33   1      89.790437325809989      83.349948617625373      11.292730000000001
    34   1      89.790437325809989      83.349948617625373      7.1900700000000004
    35   1      89.790437325809989      83.349948617625373      3.0874199999999998
    36   1      87.615726711361063      86.695657255239098      11.292730000000001
    37   1      10.748237193243311      3.7216743011554891      22.492730000000002
    38   1      10.748237193243311      3.7216743011554891      18.390070000000001
    39   1      10.748237193243311      3.7216743011554891      14.287419999999999
    40   1      43.452384013848572     0.87824998464993032      11.292730000000001
    41   1      43.452384013848572     0.87824998464993032      7.1900700000000004
    42   1      43.452384013848572     0.87824998464993032      3.0874199999999998
    43   1      30.404125777038502       20.95249342589619      11.292730000000001
    44   1      30.404125777038502       20.95249342589619      7.1900700000000004
    45   1      30.404125777038502       20.95249342589619      3.0874199999999998
    46   1      3.1366058303700601      55.580569440762204      7.1900700000000004
    47   1      3.1366058303700601      55.580569440762204      3.0874199999999998
    48   1      7.4026153345438619      5.8965194858048342      22.492730000000002
    49   1      7.4026153345438619      5.8965194858048342      14.287419999999999
    50   1     0.96189521592113048      58.926278078375944      11.292730000000001
    51   1     0.96189521592113048      58.926278078375944      7.1900700000000004
    52   1     0.96189521592113048      58.926278078375944      3.0874199999999998
    53   1      28.229415162589575      24.298202063509926      11.292730000000001
    54   1      28.229415162589575      24.298202063509926      7.1900700000000004
    55   1      28.229415162589575      24.298202063509926      3.0874199999999998
    56   1      26.054704548140645      27.643910701123662      11.292730000000001
    57   1      26.054704548140645      27.643910701123662      7.1900700000000004
    58   1      26.054704548140645      27.643910701123662      3.0874199999999998
    59   1      5.3113109949354822      52.234869187584628      11.292730000000001
    60   1      5.3113109949354822      52.234869187584628      7.1900700000000004
    61   1      5.3113109949354822      52.234869187584628      3.0874199999999998
    62   1      4.0569850914082481      8.0713592205706739      22.492730000000002
    63   1      4.0569850914082481      8.0713592205706739      18.390070000000001
    64   1      4.0569850914082481      8.0713592205706739      14.287419999999999
    65   1      79.920596844849484      91.212363916017651      3.0874199999999998
    66   1      77.745886230400558      94.558072553631391      11.292730000000001
    67   1      77.745886230400558      94.558072553631391      7.1900700000000004
    68   1      77.745886230400558      94.558072553631391      3.0874199999999998
    69   1      94.139858554707857      76.658531342397893      11.292730000000001
    70   1      94.139858554707857      76.658531342397893      7.1900700000000004
    71   1      94.139858554707857      76.658531342397893      3.0874199999999998
    72   1      22.959942504107499     0.54276899034306625      22.492730000000002
    73   1      22.959942504107499     0.54276899034306625      18.390070000000001
    74   1      22.959942504107499     0.54276899034306625      14.287419999999999
    75   1      0.7113632327087992      10.246204405220018      22.492730000000002
    76   1      0.7113632327087992      10.246204405220018      18.390070000000001
    77   1      0.7113632327087992      10.246204405220018      14.287419999999999
    78   1       91.96514794025893      80.004239980011633      11.292730000000001
    79   1       91.96514794025893      80.004239980011633      7.1900700000000004
    80   1       91.96514794025893      80.004239980011633      3.0874199999999998
    81   1      82.095307459298411      87.866655278403911      3.0874199999999998
    82   1      79.920596844849484      91.212363916017651      11.292730000000001
    83   1      79.920596844849484      91.212363916017651      7.1900700000000004
    84   1       19.61432064540805      2.7176141749924123      22.492730000000002
    85   1       19.61432064540805      2.7176141749924123      18.390070000000001
    86   1       19.61432064540805      2.7176141749924123      14.287419999999999
    87   1      3.1366058303700601      55.580569440762204      11.292730000000001
    88   1      7.4860216093844123      48.889160549970896      11.292730000000001
    89   1      7.4860216093844123      48.889160549970896      7.1900700000000004
    90   1      7.4860216093844123      48.889160549970896      3.0874199999999998
    91   1      23.879993933691715      30.989619338737402      11.292730000000001
    92   1      23.879993933691715      30.989619338737402      7.1900700000000004
    93   1      23.879993933691715      30.989619338737402      3.0874199999999998
    94   1      11.835442838282267      42.197743274743424      7.1900700000000004
    95   1      11.835442838282267      42.197743274743424      3.0874199999999998
    96   1      16.268698786708597      4.8924593596417552      22.492730000000002
    97   1      16.268698786708597      4.8924593596417552      18.390070000000001
    98   1      16.268698786708597      4.8924593596417552      14.287419999999999
    99   1      12.923082377892657      7.0672961598549398      22.492730000000002
   100   1      9.6607322238333388      45.543451912357163      11.292730000000001
   101   1      9.6607322238333388      45.543451912357163      7.1900700000000004
   102   1      9.6607322238333388      45.543451912357163      3.0874199999999998
   103   1      21.705283319242788      34.335327976351138      11.292730000000001
   104   1      21.705283319242788      34.335327976351138      7.1900700000000004
   105   1      21.705283319242788      34.335327976351138      3.0874199999999998
   106   1      14.010153452731197      38.852034637129684      11.292730000000001
   107   1      14.010153452731197      38.852034637129684      7.1900700000000004
   108   1      14.010153452731197      38.852034637129684      3.0874199999999998
   109   1      12.923082377892657      7.0672961598549398      18.390070000000001
   110   1      12.923082377892657      7.0672961598549398      14.287419999999999
   111   1      82.095307459298411      87.866655278403911      11.292730000000001
   112   1      82.095307459298411      87.866655278403911      7.1900700000000004
   113   1      16.184864067180126      35.506325999515951      3.0874199999999998
   114   1      2.8862084173581439      13.591826263919467      14.287419999999999
   115   1      88.619439302645205      77.829529365562706      3.0874199999999998
   116   1      86.444728688196264      81.175238003176446      11.292730000000001
   117   1      86.444728688196264      81.175238003176446      7.1900700000000004
   118   1      86.444728688196264      81.175238003176446      3.0874199999999998
   119   1      6.2318302760575941      11.416981079270123      22.492730000000002
   120   1      6.2318302760575941      11.416981079270123      18.390070000000001
   121   1      6.2318302760575941      11.416981079270123      14.287419999999999
   122   1      2.8862084173581439      13.591826263919467      22.492730000000002
   123   1       9.577452134757042      9.2421358946207786      22.492730000000002
   124   1       9.577452134757042      9.2421358946207786      18.390070000000001
   125   1       9.577452134757042      9.2421358946207786      14.287419999999999
   126   1      84.270018073747337      84.520946640790172      11.292730000000001
   127   1      84.270018073747337      84.520946640790172      7.1900700000000004
   128   1      84.270018073747337      84.520946640790172      3.0874199999999998
   129   1      90.794149917094131      74.483820727948967      3.0874199999999998
   130   1      88.619439302645205      77.829529365562706      11.292730000000001
   131   1      88.619439302645205      77.829529365562706      7.1900700000000004
   132   1      28.480404097572787      1.7135540488293326      22.492730000000002
   133   1      28.480404097572787      1.7135540488293326      18.390070000000001
   134   1      28.480404097572787      1.7135540488293326      14.287419999999999
   135   1      2.8862084173581439      13.591826263919467      18.390070000000001
   136   1      11.835442838282267      42.197743274743424      11.292730000000001
   137   1      19.530572704793858      37.681036613964878      11.292730000000001
   138   1      19.530572704793858      37.681036613964878      7.1900700000000004
   139   1      19.530572704793858      37.681036613964878      3.0874199999999998
   140   1      17.355862090344932       41.02674525157861      11.292730000000001
   141   1      17.355862090344932       41.02674525157861      7.1900700000000004
   142   1      17.355862090344932       41.02674525157861      3.0874199999999998
   143   1      16.184864067180126      35.506325999515951      11.292730000000001
   144   1      16.184864067180126      35.506325999515951      7.1900700000000004
   145   1      92.968860531543058      71.138112090335227      3.0874199999999998
   146   1      25.134787688756845      3.8883908490425156      22.492730000000002
   147   1      25.134787688756845      3.8883908490425156      18.390070000000001
   148   1      25.134787688756845      3.8883908490425156      14.287419999999999
   149   1      20.534285296077982      28.814908724288475      7.1900700000000004
   150   1      20.534285296077982      28.814908724288475      3.0874199999999998
   151   1      18.359574681629056      32.160617361902212      11.292730000000001
   152   1      18.359574681629056      32.160617361902212      7.1900700000000004
   153   1      18.359574681629056      32.160617361902212      3.0874199999999998
   154   1         15.181151475896       44.37245388919235      11.292730000000001
   155   1         15.181151475896       44.37245388919235      7.1900700000000004
   156   1         15.181151475896       44.37245388919235      3.0874199999999998
   157   1      22.708995910526912      25.469200086674736      11.292730000000001
   158   1      22.708995910526912      25.469200086674736      7.1900700000000004
   159   1      90.794149917094131      74.483820727948967      11.292730000000001
   160   1      90.794149917094131      74.483820727948967      7.1900700000000004
   161   1      95.143571145991984      67.792403452721501      7.1900700000000004
   162   1      95.143571145991984      67.792403452721501      3.0874199999999998
   163   1      21.789165830057392      6.0632360336918616      22.492730000000002
   164   1      22.708995910526912      25.469200086674736      3.0874199999999998
   165   1      20.534285296077982      28.814908724288475      11.292730000000001
   166   1      13.006440861447071       47.71816252680609      11.292730000000001
   167   1      13.006440861447071       47.71816252680609      7.1900700000000004
   168   1      13.006440861447071       47.71816252680609      3.0874199999999998
   169   1      24.883706524975842         22.123491449061      11.292730000000001
   170   1      24.883706524975842         22.123491449061      7.1900700000000004
   171   1      24.883706524975842         22.123491449061      3.0874199999999998
   172   1      21.789165830057392      6.0632360336918616      18.390070000000001
   173   1      21.789165830057392      6.0632360336918616      14.287419999999999
   174   1      18.443535586921783      8.2380757684577013      22.492730000000002
   175   1      92.968860531543058      71.138112090335227      11.292730000000001
   176   1      92.968860531543058      71.138112090335227      7.1900700000000004
   177   1      5.0610536020074894      16.937448122618918      22.492730000000002
   178   1      11.752297319406386      12.587757753320227      22.492730000000002
   179   1      11.752297319406386      12.587757753320227      18.390070000000001
   180   1      11.752297319406386      12.587757753320227      14.287419999999999
   181   1      76.574888207235745      89.037653301568724      11.292730000000001
   182   1      76.574888207235745      89.037653301568724      7.1900700000000004
   183   1      76.574888207235745      89.037653301568724      3.0874199999999998
   184   1      18.443535586921783      8.2380757684577013      18.390070000000001
   185   1      18.443535586921783      8.2380757684577013      14.287419999999999
   186   1      15.097913728222332      10.412920953107045      22.492730000000002
   187   1      15.097913728222332      10.412920953107045      18.390070000000001
   188   1      15.097913728222332      10.412920953107045      14.287419999999999
   189   1      74.400177592786818      92.383361939182464      11.292730000000001
   190   1      74.400177592786818      92.383361939182464      7.1900700000000004
   191   1      74.400177592786818      92.383361939182464      3.0874199999999998
   192   1      95.143571145991984      67.792403452721501      11.292730000000001
   193   1      78.749598821684671      85.691944663954985      7.1900700000000004
   194   1      78.749598821684671      85.691944663954985      3.0874199999999998
   195   1      8.4066754607069392      14.762602937969573      22.492730000000002
   196   1      8.4066754607069392      14.762602937969573      18.390070000000001
   197   1      10.831730246998145      51.063871164419822      11.292730000000001
   198   1      10.831730246998145      51.063871164419822      7.1900700000000004
   199   1      10.831730246998145      51.063871164419822      3.0874199999999998
   200   1      8.6570196325492148      54.409579802033555      11.292730000000001
   201   1      8.6570196325492148      54.409579802033555      7.1900700000000004
   202   1      8.6570196325492148      54.409579802033555      3.0874199999999998
   203   1      29.233122303990193      15.432082558269689      7.1900700000000004
   204   1      29.233122303990193      15.432082558269689      3.0874199999999998
   205   1      27.058417139424769      18.777782811447263      11.292730000000001
   206   1      27.058417139424769      18.777782811447263      7.1900700000000004
   207   1      27.058417139424769      18.777782811447263      3.0874199999999998
   208   1      8.4066754607069392      14.762602937969573      14.287419999999999
   209   1      33.582543532888053      8.7406652830422153      11.292730000000001
   210   1      33.582543532888053      8.7406652830422153      7.1900700000000004
   211   1      37.346492999621034     0.70948553823009364      22.492730000000002
   212   1      37.346492999621034     0.70948553823009364      18.390070000000001
   213   1      83.099020050582524      79.000527388727519      11.292730000000001
   214   1      83.099020050582524      79.000527388727519      7.1900700000000004
   215   1      83.099020050582524      79.000527388727519      3.0874199999999998
   216   1      5.0610536020074894      16.937448122618918      18.390070000000001
   217   1      5.0610536020074894      16.937448122618918      14.287419999999999
   218   1      1.7154317433080395      19.112293307268263      22.492730000000002
   219   1      1.7154317433080395      19.112293307268263      18.390070000000001
   220   1      1.7154317433080395      19.112293307268263      14.287419999999999
   221   1      80.924309436133598      82.346236026341245      11.292730000000001
   222   1      80.924309436133598      82.346236026341245      7.1900700000000004
   223   1      80.924309436133598      82.346236026341245      3.0874199999999998
   224   1      78.749598821684671      85.691944663954985      11.292730000000001
   225   1      30.655249282222133      5.0591759075287834      18.390070000000001
   226   1      30.655249282222133      5.0591759075287834      14.287419999999999
   227   1      85.273730665031465       75.65481875111378      11.292730000000001
   228   1      85.273730665031465       75.65481875111378      7.1900700000000004
   229   1      85.273730665031465       75.65481875111378      3.0874199999999998
   230   1      37.346492999621034     0.70948553823009364      14.287419999999999
   231   1      34.000871140921582      2.8843307228794361      22.492730000000002
   232   1      34.000871140921582      2.8843307228794361      18.390070000000001
   233   1      34.000871140921582      2.8843307228794361      14.287419999999999
   234   1      31.407832918439123      12.086373920655953      11.292730000000001
   235   1      31.407832918439123      12.086373920655953      7.1900700000000004
   236   1      31.407832918439123      12.086373920655953      3.0874199999999998
   237   1      29.233122303990193      15.432082558269689      11.292730000000001
   238   1      6.4823144679837927      57.755280055211131      11.292730000000001
   239   1      6.4823144679837927      57.755280055211131      7.1900700000000004
   240   1      6.4823144679837927      57.755280055211131      3.0874199999999998
   241   1      87.448441279480392       72.30911011350004      3.0874199999999998
   242   1      27.309632873406187      7.2340127077419636      22.492730000000002
   243   1      27.309632873406187      7.2340127077419636      18.390070000000001
   244   1      27.309632873406187      7.2340127077419636      14.287419999999999
   245   1      23.964002630270578      9.4088524425078024      22.492730000000002
   246   1      23.964002630270578      9.4088524425078024      18.390070000000001
   247   1      33.582543532888053      8.7406652830422153      3.0874199999999998
   248   1      4.3076038535348635       61.10098869282487      11.292730000000001
   249   1      4.3076038535348635       61.10098869282487      7.1900700000000004
   250   1      4.3076038535348635       61.10098869282487      3.0874199999999998
   251   1      37.931964761785906      2.0492480078147421      7.1900700000000004
   252   1      37.931964761785906      2.0492480078147421      3.0874199999999998
   253   1       35.75725414733698      5.3949566454284792      11.292730000000001
   254   1       35.75725414733698      5.3949566454284792      7.1900700000000004
   255   1       35.75725414733698      5.3949566454284792      3.0874199999999998
   256   1      30.655249282222133      5.0591759075287834      22.492730000000002
   257   1      20.618380771571125      11.583697627157148      14.287419999999999
   258   1      91.797862508378245      65.617692838272575      11.292730000000001
   259   1      91.797862508378245      65.617692838272575      7.1900700000000004
   260   1      91.797862508378245      65.617692838272575      3.0874199999999998
   261   1      89.623151893929318        68.9634014758863      11.292730000000001
   262   1      37.931964761785906      2.0492480078147421      11.292730000000001
   263   1      2.1328932390859334       64.44669733043861      11.292730000000001
   264   1      2.1328932390859334       64.44669733043861      7.1900700000000004
   265   1      2.1328932390859334       64.44669733043861      3.0874199999999998
   266   1      1.9656023573217427      50.060158573135702      11.292730000000001
   267   1      1.9656023573217427      50.060158573135702      7.1900700000000004
   268   1      1.9656023573217427      50.060158573135702      3.0874199999999998
   269   1      89.623151893929318        68.9634014758863      7.1900700000000004
   270   1      89.623151893929318        68.9634014758863      3.0874199999999998
   271   1      87.448441279480392       72.30911011350004      11.292730000000001
   272   1      87.448441279480392       72.30911011350004      7.1900700000000004
   273   1      93.972573122827171      62.271984200658828      3.0874199999999998
   274   1      17.272758912871677      13.758542811806494      22.492730000000002
   275   1      4.1403129717706726      46.714449935521962      11.292730000000001
   276   1      4.1403129717706726      46.714449935521962      7.1900700000000004
   277   1      4.1403129717706726      46.714449935521962      3.0874199999999998
   278   1      46.798092651462305      3.0529605990988604      11.292730000000001
   279   1      46.798092651462305      3.0529605990988604      7.1900700000000004
   280   1      46.798092651462305      3.0529605990988604      3.0874199999999998
   281   1      8.4897342006685275       40.02303266029449      11.292730000000001
   282   1      8.4897342006685275       40.02303266029449      7.1900700000000004
   283   1      8.4897342006685275       40.02303266029449      3.0874199999999998
   284   1      17.272758912871677      13.758542811806494      18.390070000000001
   285   1      17.272758912871677      13.758542811806494      14.287419999999999
   286   1      23.964002630270578      9.4088524425078024      14.287419999999999
   287   1      20.618380771571125      11.583697627157148      22.492730000000002
   288   1      20.618380771571125      11.583697627157148      18.390070000000001
   289   1      71.054468955173093      90.208651324733523      7.1900700000000004
   290   1      71.054468955173093      90.208651324733523      3.0874199999999998
   291   1      68.879758340724166      93.554359962347263      11.292730000000001
   292   1      68.879758340724166      93.554359962347263      7.1900700000000004
   293   1      68.879758340724166      93.554359962347263      3.0874199999999998
   294   1      10.581520645356285      18.108224796669024      14.287419999999999
   295   1      7.2358987866568345       20.28306998131837      22.492730000000002
   296   1      7.2358987866568345       20.28306998131837      18.390070000000001
   297   1      7.2358987866568345       20.28306998131837      14.287419999999999
   298   1      13.927137054172229       15.93338799645584      22.492730000000002
   299   1      13.927137054172229       15.93338799645584      18.390070000000001
   300   1      13.927137054172229       15.93338799645584      14.287419999999999
   301   1      10.581520645356285      18.108224796669024      22.492730000000002
   302   1      10.581520645356285      18.108224796669024      18.390070000000001
   303   1      93.972573122827171      62.271984200658828      11.292730000000001
   304   1      93.972573122827171      62.271984200658828      7.1900700000000004
   305   1      3.8902685435212221       22.45790971608421      22.492730000000002
   306   1      3.8902685435212221       22.45790971608421      18.390070000000001
   307   1      3.8902685435212221       22.45790971608421      14.287419999999999
   308   1     0.54464668482177436      24.632754900733552      22.492730000000002
   309   1     0.54464668482177436      24.632754900733552      18.390070000000001
   310   1      6.3150235862195983       43.36874129790823      11.292730000000001
   311   1      6.3150235862195983       43.36874129790823      7.1900700000000004
   312   1      6.3150235862195983       43.36874129790823      3.0874199999999998
   313   1      44.623382037013378      6.3986692367125988      11.292730000000001
   314   1      44.623382037013378      6.3986692367125988      7.1900700000000004
   315   1      44.623382037013378      6.3986692367125988      3.0874199999999998
   316   1      10.664444815117458      36.677324022680757      11.292730000000001
   317   1      10.664444815117458      36.677324022680757      7.1900700000000004
   318   1      10.664444815117458      36.677324022680757      3.0874199999999998
   319   1     0.54464668482177436      24.632754900733552      14.287419999999999
   320   1      71.054468955173093      90.208651324733523      11.292730000000001
   321   1      42.448671422564445      9.7443778743263358      3.0874199999999998
   322   1      17.188576658464243      26.640198109839545      11.292730000000001
   323   1      17.188576658464243      26.640198109839545      7.1900700000000004
   324   1      17.188576658464243      26.640198109839545      3.0874199999999998
   325   1      42.866954593086319      1.8802705967163615      22.492730000000002
   326   1      42.866954593086319      1.8802705967163615      18.390070000000001
   327   1      42.866954593086319      1.8802705967163615      14.287419999999999
   328   1      77.578600798519872      80.171525411892318      11.292730000000001
   329   1      77.578600798519872      80.171525411892318      7.1900700000000004
   330   1      77.578600798519872      80.171525411892318      3.0874199999999998
   331   1      75.403890184070946      83.517234049506058      11.292730000000001
   332   1      75.403890184070946      83.517234049506058      7.1900700000000004
   333   1      75.403890184070946      83.517234049506058      3.0874199999999998
   334   1      73.229179569622019      86.862942687119798      11.292730000000001
   335   1      73.229179569622019      86.862942687119798      7.1900700000000004
   336   1      73.229179569622019      86.862942687119798      3.0874199999999998
   337   1      36.175716325570932       6.229952581578889      14.287419999999999
   338   1      15.013866044015316      29.985906747453281      11.292730000000001
   339   1      15.013866044015316      29.985906747453281      7.1900700000000004
   340   1      15.013866044015316      29.985906747453281      3.0874199999999998
   341   1      40.273960808115518      13.090086511940072      11.292730000000001
   342   1      40.273960808115518      13.090086511940072      7.1900700000000004
   343   1      40.273960808115518      13.090086511940072      3.0874199999999998
   344   1      38.099250193666592      16.435795149553808      11.292730000000001
   345   1      38.099250193666592      16.435795149553808      7.1900700000000004
   346   1      38.099250193666592      16.435795149553808      3.0874199999999998
   347   1      19.363287272913173      23.294489472225809      11.292730000000001
   348   1      12.839155429566386      33.331615385067018      11.292730000000001
   349   1      12.839155429566386      33.331615385067018      7.1900700000000004
   350   1      12.839155429566386      33.331615385067018      3.0874199999999998
   351   1      42.448671422564445      9.7443778743263358      11.292730000000001
   352   1      42.448671422564445      9.7443778743263358      7.1900700000000004
   353   1      84.102732641866666      70.134399499051113      7.1900700000000004
   354   1      84.102732641866666      70.134399499051113      3.0874199999999998
   355   1       81.92802202741774      73.480108136664839      11.292730000000001
   356   1       81.92802202741774      73.480108136664839      7.1900700000000004
   357   1       81.92802202741774      73.480108136664839      3.0874199999999998