(written by ASE)

9336 atoms
3 atom types

0.0      78.702577788124046  xlo xhi
0.0      78.702577788124046  ylo yhi
0.0                      50  zlo zhi

Masses

     1       137.3269999646734 # Ba
     2      15.998999995884349 # O
     3      47.866999987686484 # Ti

Atoms # atomic

     1   1      74.605592630779569      77.640395061653123      11.292730000000001
     2   1      74.605592630779569      77.640395061653123      7.1900700000000004
     3   1      74.605592630779569      77.640395061653123      3.0874199999999998
     4   1      78.045037684260834      75.617192089017081      11.292730000000001
     5   1      68.536200717485642       11.37920582054047      22.492730000000002
     6   1      68.536200717485642       11.37920582054047      18.390070000000001
     7   1      68.536200717485642       11.37920582054047      14.287419999999999
     8   1      27.667288735824815      45.066835821555102      11.292730000000001
     9   1      27.667288735824815      45.066835821555102      7.1900700000000004
    10   1      27.667288735824815      45.066835821555102      3.0874199999999998
    11   1       64.48992659744647      18.258179078803749      14.287419999999999
    12   1      66.513063657466063      14.818692449672112      22.492730000000002
    13   1      66.513063657466063      14.818692449672112      18.390070000000001
    14   1      66.513063657466063      14.818692449672112      14.287419999999999
    15   1      31.106733789306077       43.04363284891906      11.292730000000001
    16   1      31.106733789306077       43.04363284891906      7.1900700000000004
    17   1      18.967521023691127      22.406971147373653      11.292730000000001
    18   1      12.088639536070756      26.453372022444459      11.292730000000001
    19   1      77.438076792470028      66.715099009418523      11.292730000000001
    20   1      77.438076792470028      66.715099009418523      7.1900700000000004
    21   1      77.438076792470028      66.715099009418523      3.0874199999999998
    22   1      65.703499551181011      78.247355953443929      11.292730000000001
    23   1      65.703499551181011      78.247355953443929      7.1900700000000004
    24   1      65.703499551181011      78.247355953443929      3.0874199999999998
    25   1      0.7588615866085705      8.5480211514344031      22.492730000000002
    26   1      0.7588615866085705      8.5480211514344031      18.390070000000001
    27   1      0.7588615866085705      8.5480211514344031      14.287419999999999
    28   1       2.781998646628153      5.1085345223027643      22.492730000000002
    29   1       2.781998646628153      5.1085345223027643      18.390070000000001
    30   1       2.781998646628153      5.1085345223027643      14.287419999999999
    31   1      78.045037684260834      75.617192089017081      7.1900700000000004
    32   1      72.582389658143541      74.200950008171858      11.292730000000001
    33   1      2.1752060855193611      14.010636221243471      22.492730000000002
    34   1      2.1752060855193611      14.010636221243471      18.390070000000001
    35   1      2.1752060855193611      14.010636221243471      14.287419999999999
    36   1      4.1983431455389448      10.571149592111833      22.492730000000002
    37   1     0.15206902549977935      17.450122850375113      22.492730000000002
    38   1     0.15206902549977935      17.450122850375113      18.390070000000001
    39   1     0.15206902549977935      17.450122850375113      14.287419999999999
    40   1      12.088639536070756      26.453372022444459      7.1900700000000004
    41   1      12.088639536070756      26.453372022444459      3.0874199999999998
    42   1      29.285856184134907      16.337362229465548      11.292730000000001
    43   1      29.285856184134907      16.337362229465548      7.1900700000000004
    44   1      29.285856184134907      16.337362229465548      3.0874199999999998
    45   1      32.725301237616172      14.314159256829509      11.292730000000001
    46   1      5.2097494291082356      30.499777967716529      7.1900700000000004
    47   1      5.2097494291082356      30.499777967716529      3.0874199999999998
    48   1      8.6491944825894969      28.476574995080494      11.292730000000001
    49   1       1.770304375626975      32.522980940352568      11.292730000000001
    50   1       1.770304375626975      32.522980940352568      7.1900700000000004
    51   1       1.770304375626975      32.522980940352568      3.0874199999999998
    52   1      5.2097494291082356      30.499777967716529      11.292730000000001
    53   1      10.267759395798956     0.25269832405906906      14.287419999999999
    54   1      63.680296578544983      74.807910899962664      11.292730000000001
    55   1      63.680296578544983      74.807910899962664      7.1900700000000004
    56   1      63.680296578544983      74.807910899962664      3.0874199999999998
    57   1      4.1983431455389448      10.571149592111833      18.390070000000001
    58   1      4.1983431455389448      10.571149592111833      14.287419999999999
    59   1      6.2214852757597932      7.1316715823223475      22.492730000000002
    60   1      6.2214852757597932      7.1316715823223475      18.390070000000001
    61   1      6.2214852757597932      7.1316715823223475      14.287419999999999
    62   1      67.119741632026248      72.784707927326636      11.292730000000001
    63   1      67.119741632026248      72.784707927326636      7.1900700000000004
    64   1      67.119741632026248      72.784707927326636      3.0874199999999998
    65   1         75.414873819834      63.275653955937258      7.1900700000000004
    66   1         75.414873819834      63.275653955937258      3.0874199999999998
    67   1      60.240851525063725      76.831113872598706      11.292730000000001
    68   1      60.240851525063725      76.831113872598706      7.1900700000000004
    69   1      60.240851525063725      76.831113872598706      3.0874199999999998
    70   1      8.2446223357793738      3.6921849531907074      22.492730000000002
    71   1      8.2446223357793738      3.6921849531907074      18.390070000000001
    72   1      8.2446223357793738      3.6921849531907074      14.287419999999999
    73   1      10.267759395798956     0.25269832405906906      22.492730000000002
    74   1      10.267759395798956     0.25269832405906906      18.390070000000001
    75   1      8.6491944825894969      28.476574995080494      3.0874199999999998
    76   1      32.725301237616172      14.314159256829509      7.1900700000000004
    77   1      32.725301237616172      14.314159256829509      3.0874199999999998
    78   1       36.16474629109743      12.290956284193474      11.292730000000001
    79   1       36.16474629109743      12.290956284193474      7.1900700000000004
    80   1       36.16474629109743      12.290956284193474      3.0874199999999998
    81   1      5.6146927146510013      16.033773281263056      18.390070000000001
    82   1      71.975428766352735      65.298856928573286      11.292730000000001
    83   1      71.975428766352735      65.298856928573286      7.1900700000000004
    84   1      71.975428766352735      65.298856928573286      3.0874199999999998
    85   1         75.414873819834      63.275653955937258      11.292730000000001
    86   1      1.5684135244105712      22.912737920184178      22.492730000000002
    87   1      1.5684135244105712      22.912737920184178      18.390070000000001
    88   1      1.5684135244105712      22.912737920184178      14.287419999999999
    89   1      47.899323532386433     0.75869934016807006      3.0874199999999998
    90   1      39.604191344578688      10.267753311557438      11.292730000000001
    91   1      39.604191344578688      10.267753311557438      7.1900700000000004
    92   1      39.604191344578688      10.267753311557438      3.0874199999999998
    93   1      44.459878478905175      2.7819023128041067      11.292730000000001
    94   1      44.459878478905175      2.7819023128041067      7.1900700000000004
    95   1      44.459878478905175      2.7819023128041067      3.0874199999999998
    96   1      47.899323532386433     0.75869934016807006      11.292730000000001
    97   1       68.53598371287147      67.322059901209329      7.1900700000000004
    98   1       68.53598371287147      67.322059901209329      3.0874199999999998
    99   1       3.591555654631418      19.473259910394695      22.492730000000002
   100   1       3.591555654631418      19.473259910394695      18.390070000000001
   101   1       3.591555654631418      19.473259910394695      14.287419999999999
   102   1      5.6146927146510013      16.033773281263056      22.492730000000002
   103   1      47.899323532386433     0.75869934016807006      7.1900700000000004
   104   1      43.043636398059952      8.2445503389214014      11.292730000000001
   105   1      43.043636398059952      8.2445503389214014      7.1900700000000004
   106   1      43.043636398059952      8.2445503389214014      3.0874199999999998
   107   1       46.48308145154121       6.221347366285368      11.292730000000001
   108   1      41.020433425423917      4.8051052854401402      11.292730000000001
   109   1      41.020433425423917      4.8051052854401402      7.1900700000000004
   110   1      41.020433425423917      4.8051052854401402      3.0874199999999998
   111   1       46.48308145154121       6.221347366285368      7.1900700000000004
   112   1       46.48308145154121       6.221347366285368      3.0874199999999998
   113   1      37.580988371942652      6.8283082580761763      3.0874199999999998
   114   1      30.702098264980133      10.874714203348248      11.292730000000001
   115   1      13.707237405588444      2.2758404542799164      18.390070000000001
   116   1      61.657093605908948      71.368465846481399      7.1900700000000004
   117   1      61.657093605908948      71.368465846481399      3.0874199999999998
   118   1      65.096538659390205      69.345262873845371      11.292730000000001
   119   1      65.096538659390205      69.345262873845371      7.1900700000000004
   120   1      65.096538659390205      69.345262873845371      3.0874199999999998
   121   1      9.6609719048914311      9.1548086423419281      22.492730000000002
   122   1      9.6609719048914311      9.1548086423419281      18.390070000000001
   123   1      9.6609719048914311      9.1548086423419281      14.287419999999999
   124   1      5.6146927146510013      16.033773281263056      14.287419999999999
   125   1      7.6378297746705837      12.594286652131416      22.492730000000002
   126   1      7.6378297746705837      12.594286652131416      18.390070000000001
   127   1      7.6378297746705837      12.594286652131416      14.287419999999999
   128   1       68.53598371287147      67.322059901209329      11.292730000000001
   129   1       58.21764855242769      73.391668819117442      11.292730000000001
   130   1       58.21764855242769      73.391668819117442      7.1900700000000004
   131   1       58.21764855242769      73.391668819117442      3.0874199999999998
   132   1      61.657093605908948      71.368465846481399      11.292730000000001
   133   1      11.684100345568861      5.7153270834115562      22.492730000000002
   134   1      11.684100345568861      5.7153270834115562      18.390070000000001
   135   1      11.684100345568861      5.7153270834115562      14.287419999999999
   136   1      13.707237405588444      2.2758404542799164      22.492730000000002
   137   1      49.922526505022468       4.198144393649331      11.292730000000001
   138   1      49.922526505022468       4.198144393649331      7.1900700000000004
   139   1      49.922526505022468       4.198144393649331      3.0874199999999998
   140   1      34.141543318461395      8.8515112307122124      11.292730000000001
   141   1      34.141543318461395      8.8515112307122124      7.1900700000000004
   142   1      34.141543318461395      8.8515112307122124      3.0874199999999998
   143   1      37.580988371942652      6.8283082580761763      11.292730000000001
   144   1      37.580988371942652      6.8283082580761763      7.1900700000000004
   145   1      54.778203498946425       75.41487179175347      3.0874199999999998
   146   1     0.96162096330177871      31.814839619124889      22.492730000000002
   147   1     0.96162096330177871      31.814839619124889      18.390070000000001
   148   1     0.96162096330177871      31.814839619124889      14.287419999999999
   149   1      2.9847630935226266      28.375361609335403      22.492730000000002
   150   1      2.9847630935226266      28.375361609335403      18.390070000000001
   151   1      2.9847630935226266      28.375361609335403      14.287419999999999
   152   1      13.707237405588444      2.2758404542799164      14.287419999999999
   153   1      30.702098264980133      10.874714203348248      7.1900700000000004
   154   1      30.702098264980133      10.874714203348248      3.0874199999999998
   155   1      53.361962939161579      2.1749464912145617      11.292730000000001
   156   1      53.361962939161579      2.1749464912145617      7.1900700000000004
   157   1      53.361962939161579      2.1749464912145617      3.0874199999999998
   158   1      27.262653211498872      12.897917175984285      11.292730000000001
   159   1      27.262653211498872      12.897917175984285      7.1900700000000004
   160   1      27.262653211498872      12.897917175984285      3.0874199999999998
   161   1      20.383763104536353      16.944323121256357      7.1900700000000004
   162   1      20.383763104536353      16.944323121256357      3.0874199999999998
   163   1      23.823208158017614       14.92112014862032      11.292730000000001
   164   1      23.823208158017614       14.92112014862032      7.1900700000000004
   165   1      23.823208158017614       14.92112014862032      3.0874199999999998
   166   1      7.0310372135617927      21.496388351072124      14.287419999999999
   167   1      76.831115900679208      57.813005929819973      7.1900700000000004
   168   1      76.831115900679208      57.813005929819973      3.0874199999999998
   169   1      51.338758445465167      77.438074764389512      11.292730000000001
   170   1      51.338758445465167      77.438074764389512      7.1900700000000004
   171   1      51.338758445465167      77.438074764389512      3.0874199999999998
   172   1      5.0079001535422094      24.935874980203764      22.492730000000002
   173   1      5.0079001535422094      24.935874980203764      18.390070000000001
   174   1      5.0079001535422094      24.935874980203764      14.287419999999999
   175   1      54.778203498946425       75.41487179175347      11.292730000000001
   176   1      54.778203498946425       75.41487179175347      7.1900700000000004
   177   1      76.831115900679208      57.813005929819973      11.292730000000001
   178   1      9.0541793437826392      18.056910341282638      22.492730000000002
   179   1      9.0541793437826392      18.056910341282638      18.390070000000001
   180   1      9.0541793437826392      18.056910341282638      14.287419999999999
   181   1       11.07730778446007      14.617428782352263      22.492730000000002
   182   1       11.07730778446007      14.617428782352263      18.390070000000001
   183   1       11.07730778446007      14.617428782352263      14.287419999999999
   184   1      7.0310372135617927      21.496388351072124      22.492730000000002
   185   1      7.0310372135617927      21.496388351072124      18.390070000000001
   186   1      56.801407992642844     0.15174351857852528      11.292730000000001
   187   1      56.801407992642844     0.15174351857852528      7.1900700000000004
   188   1      56.801407992642844     0.15174351857852528      3.0874199999999998
   189   1     0.35406229478175322      37.985628966469861      11.292730000000001
   190   1     0.35406229478175322      37.985628966469861      7.1900700000000004
   191   1     0.35406229478175322      37.985628966469861      3.0874199999999998
   192   1      20.383763104536353      16.944323121256357      11.292730000000001
   193   1      16.944318051055092      18.967526093892392      7.1900700000000004
   194   1      16.944318051055092      18.967526093892392      3.0874199999999998
   195   1       13.50487299757383      20.990729066528427      11.292730000000001
   196   1       13.50487299757383      20.990729066528427      7.1900700000000004
   197   1      66.512780740235428      63.882614847728078      11.292730000000001
   198   1      66.512780740235428      63.882614847728078      7.1900700000000004
   199   1      66.512780740235428      63.882614847728078      3.0874199999999998
   200   1      69.952225793716693      61.859411875092043      11.292730000000001
   201   1      69.952225793716693      61.859411875092043      7.1900700000000004
   202   1      69.952225793716693      61.859411875092043      3.0874199999999998
   203   1      13.100444844479654      11.177942153220624      22.492730000000002
   204   1      13.100444844479654      11.177942153220624      18.390070000000001
   205   1      13.100444844479654      11.177942153220624      14.287419999999999
   206   1      73.391670847197958      59.836208902456008      11.292730000000001
   207   1      73.391670847197958      59.836208902456008      7.1900700000000004
   208   1      73.391670847197958      59.836208902456008      3.0874199999999998
   209   1      10.065436563434721      23.013926968963197      11.292730000000001
   210   1      10.065436563434721      23.013926968963197      7.1900700000000004
   211   1      10.065436563434721      23.013926968963197      3.0874199999999998
   212   1      19.169861094739666      0.8594908851678611      22.492730000000002
   213   1      19.169861094739666      0.8594908851678611      18.390070000000001
   214   1      19.169861094739666      0.8594908851678611      14.287419999999999
   215   1      63.073335686754177      65.905817820364121      11.292730000000001
   216   1      63.073335686754177      65.905817820364121      7.1900700000000004
   217   1      63.073335686754177      65.905817820364121      3.0874199999999998
   218   1      15.123586974700501      7.7384641434311376      22.492730000000002
   219   1      15.123586974700501      7.7384641434311376      18.390070000000001
   220   1      15.123586974700501      7.7384641434311376      14.287419999999999
   221   1      3.7935073482630139      35.962425993833826      11.292730000000001
   222   1      3.7935073482630139      35.962425993833826      7.1900700000000004
   223   1      3.7935073482630139      35.962425993833826      3.0874199999999998
   224   1      16.944318051055092      18.967526093892392      11.292730000000001
   225   1      3.1865464564722004      27.060332914235268      3.0874199999999998
   226   1     0.35483347239425145      40.716949937407747      22.492730000000002
   227   1     0.35483347239425145      40.716949937407747      18.390070000000001
   228   1      59.633890633272912      67.929020793000149      11.292730000000001
   229   1      59.633890633272912      67.929020793000149      7.1900700000000004
   230   1      59.633890633272912      67.929020793000149      3.0874199999999998
   231   1      17.146724034720084      4.2989775142994988      22.492730000000002
   232   1      17.146724034720084      4.2989775142994988      18.390070000000001
   233   1      17.146724034720084      4.2989775142994988      14.287419999999999
   234   1       13.50487299757383      20.990729066528427      3.0874199999999998
   235   1      7.2329524017442743       33.93922302119779      11.292730000000001
   236   1      7.2329524017442743       33.93922302119779      7.1900700000000004
   237   1      7.2329524017442743       33.93922302119779      3.0874199999999998
   238   1      6.6259915099534608      25.037129941599233      11.292730000000001
   239   1      6.6259915099534608      25.037129941599233      7.1900700000000004
   240   1      6.6259915099534608      25.037129941599233      3.0874199999999998
   241   1       52.75500052631039      71.975426738272219      3.0874199999999998
   242   1      56.194445579791655      69.952223765636191      11.292730000000001
   243   1      56.194445579791655      69.952223765636191      7.1900700000000004
   244   1      56.194445579791655      69.952223765636191      3.0874199999999998
   245   1     0.35483347239425145      40.716949937407747      14.287419999999999
   246   1      2.3779705324138325      37.277463308276111      22.492730000000002
   247   1      2.3779705324138325      37.277463308276111      18.390070000000001
   248   1      2.3779705324138325      37.277463308276111      14.287419999999999
   249   1      10.672397455225536      31.916020048561755      11.292730000000001
   250   1      10.672397455225536      31.916020048561755      7.1900700000000004
   251   1      10.672397455225536      31.916020048561755      3.0874199999999998
   252   1      14.111842508706795       29.89281707592572      11.292730000000001
   253   1      14.111842508706795       29.89281707592572      7.1900700000000004
   254   1      14.111842508706795       29.89281707592572      3.0874199999999998
   255   1      3.1865464564722004      27.060332914235268      11.292730000000001
   256   1      3.1865464564722004      27.060332914235268      7.1900700000000004
   257   1      17.551278942845904       27.86961917349095      3.0874199999999998
   258   1      38.997230452787882      1.3656602319588786      11.292730000000001
   259   1      38.997230452787882      1.3656602319588786      7.1900700000000004
   260   1      38.997230452787882      1.3656602319588786      3.0874199999999998
   261   1      20.990723996327166      25.846416200854915      11.292730000000001
   262   1      49.315555472829132      73.998629710908261      3.0874199999999998
   263   1      6.4242497226542641      30.398498669354982      22.492730000000002
   264   1      6.4242497226542641      30.398498669354982      18.390070000000001
   265   1      6.4242497226542641      30.398498669354982      14.287419999999999
   266   1      8.4473867826738491      26.959012040223346      22.492730000000002
   267   1      8.4473867826738491      26.959012040223346      18.390070000000001
   268   1      4.4011075924334166      33.837976679144468      22.492730000000002
   269   1      4.4011075924334166      33.837976679144468      18.390070000000001
   270   1      4.4011075924334166      33.837976679144468      14.287419999999999
   271   1       52.75500052631039      71.975426738272219      11.292730000000001
   272   1       52.75500052631039      71.975426738272219      7.1900700000000004
   273   1      35.557785399306617      3.3888632045949154      3.0874199999999998
   274   1      24.430169049808427      23.823213228218879      11.292730000000001
   275   1      24.430169049808427      23.823213228218879      7.1900700000000004
   276   1      24.430169049808427      23.823213228218879      3.0874199999999998
   277   1      12.493657353572125      20.080052471503485      14.287419999999999
   278   1      45.876110419347874      76.021832683544289      11.292730000000001
   279   1      45.876110419347874      76.021832683544289      7.1900700000000004
   280   1      45.876110419347874      76.021832683544289      3.0874199999999998
   281   1      8.4473867826738491      26.959012040223346      14.287419999999999
   282   1      10.470515223351279      23.519530481292975      22.492730000000002
   283   1      10.470515223351279      23.519530481292975      18.390070000000001
   284   1      10.470515223351279      23.519530481292975      14.287419999999999
   285   1      49.315555472829132      73.998629710908261      11.292730000000001
   286   1      49.315555472829132      73.998629710908261      7.1900700000000004
   287   1      17.551278942845904       27.86961917349095      11.292730000000001
   288   1      17.551278942845904       27.86961917349095      7.1900700000000004
   289   1      42.436673985208763      78.045030585979063      7.1900700000000004
   290   1      42.436673985208763      78.045030585979063      3.0874199999999998
   291   1      14.516794413591709      16.640565842371846      22.492730000000002
   292   1      14.516794413591709      16.640565842371846      18.390070000000001
   293   1      14.516794413591709      16.640565842371846      14.287419999999999
   294   1      16.539931473611293      13.201079213240208      22.492730000000002
   295   1      16.539931473611293      13.201079213240208      18.390070000000001
   296   1      12.493657353572125      20.080052471503485      22.492730000000002
   297   1      12.493657353572125      20.080052471503485      18.390070000000001
   298   1      20.990723996327166      25.846416200854915      7.1900700000000004
   299   1      20.990723996327166      25.846416200854915      3.0874199999999998
   300   1      32.118340345825359       5.412066177230952      11.292730000000001
   301   1      32.118340345825359       5.412066177230952      7.1900700000000004
   302   1      32.118340345825359       5.412066177230952      3.0874199999999998
   303   1      35.557785399306617      3.3888632045949154      11.292730000000001
   304   1      35.557785399306617      3.3888632045949154      7.1900700000000004
   305   1      74.807917998244434      54.373569495680862      11.292730000000001
   306   1      74.807917998244434      54.373569495680862      7.1900700000000004
   307   1      74.807917998244434      54.373569495680862      3.0874199999999998
   308   1      78.247363051725699      52.350366523044826      11.292730000000001
   309   1      78.247363051725699      52.350366523044826      7.1900700000000004
   310   1      78.247363051725699      52.350366523044826      3.0874199999999998
   311   1      27.869614103289688      21.800010255582841      11.292730000000001
   312   1      27.869614103289688      21.800010255582841      7.1900700000000004
   313   1      27.869614103289688      21.800010255582841      3.0874199999999998
   314   1      28.678895292344098      7.4352691498669872      11.292730000000001
   315   1      28.678895292344098      7.4352691498669872      7.1900700000000004
   316   1      28.678895292344098      7.4352691498669872      3.0874199999999998
   317   1      25.239450238862837      9.4584721225030233      11.292730000000001
   318   1      25.239450238862837      9.4584721225030233      7.1900700000000004
   319   1      25.239450238862837      9.4584721225030233      3.0874199999999998
   320   1      42.436673985208763      78.045030585979063      11.292730000000001
   321   1      64.489582837800654      60.443178413588967      11.292730000000001
   322   1      64.489582837800654      60.443178413588967      7.1900700000000004
   323   1      64.489582837800654      60.443178413588967      3.0874199999999998
   324   1      67.929027891281919      58.419975440952932      11.292730000000001
   325   1      67.929027891281919      58.419975440952932      7.1900700000000004
   326   1      67.929027891281919      58.419975440952932      3.0874199999999998
   327   1      20.586202044509569      6.3221196445203462      22.492730000000002
   328   1      20.586202044509569      6.3221196445203462      18.390070000000001
   329   1      20.586202044509569      6.3221196445203462      14.287419999999999
   330   1      16.539931473611293      13.201079213240208      14.287419999999999
   331   1      18.563073603832141        9.76160120345072      22.492730000000002
   332   1      18.563073603832141        9.76160120345072      18.390070000000001
   333   1      18.563073603832141        9.76160120345072      14.287419999999999
   334   1      71.368472944763184      56.396772468316897      11.292730000000001
   335   1      71.368472944763184      56.396772468316897      7.1900700000000004
   336   1      71.368472944763184      56.396772468316897      3.0874199999999998
   337   1      61.050137784319404      62.466381386225002      11.292730000000001
   338   1      61.050137784319404      62.466381386225002      7.1900700000000004
   339   1      61.050137784319404      62.466381386225002      3.0874199999999998
   340   1      22.609339104529152      2.8826330153887074      22.492730000000002
   341   1      22.609339104529152      2.8826330153887074      18.390070000000001
   342   1      22.609339104529152      2.8826330153887074      14.287419999999999
   343   1      31.309059156770946      19.776807282946809      11.292730000000001
   344   1      31.309059156770946      19.776807282946809      7.1900700000000004
   345   1      31.309059156770946      19.776807282946809      3.0874199999999998
   346   1      18.360560131900318      13.504878067775094      11.292730000000001
   347   1      18.360560131900318      13.504878067775094      7.1900700000000004
   348   1      18.360560131900318      13.504878067775094      3.0874199999999998
   349   1      21.800005185381579      11.481675095139058      11.292730000000001
   350   1      21.800005185381579      11.481675095139058      7.1900700000000004
   351   1      21.800005185381579      11.481675095139058      3.0874199999999998
   352   1      14.921115078419056      15.528081040411131      11.292730000000001
   353   1      34.748504210252207       17.75360431031077      11.292730000000001
   354   1      34.748504210252207       17.75360431031077      7.1900700000000004
   355   1      34.748504210252207       17.75360431031077      3.0874199999999998
   356   1      11.481670024937795      17.551284013047166      11.292730000000001
   357   1      11.481670024937795      17.551284013047166      7.1900700000000004