(written by ASE)

696 atoms
3 atom types

0.0       21.48884907005775  xlo xhi
0.0       21.48884907005775  ylo yhi
0.0                      50  zlo zhi

Masses

     1       137.3269999646734 # Ba
     2      15.998999995884349 # O
     3      47.866999987686484 # Ti

Atoms # atomic

     1   1      20.562607453219627      15.746136476205727      3.0874199999999998
     2   1      20.562607453219627      15.746136476205727      7.1900700000000004
     3   1      20.562607453219627      15.746136476205727      11.292730000000001
     4   1      19.821608775757923      6.8542061983133067      11.292730000000001
     5   1      18.339622562554798       10.55917173132112      3.0874199999999998
     6   1      18.339622562554798       10.55917173132112      7.1900700000000004
     7   1      18.339622562554798       10.55917173132112      11.292730000000001
     8   1      16.857632635444908      14.264146549095839      3.0874199999999998
     9   1      2.7779911174084058      15.005277070247654      14.287419999999999
    10   1      2.7779911174084058      15.005277070247654      18.390070000000001
    11   1      2.7779911174084058      15.005277070247654      22.492730000000002
    12   1      4.2598046339470237      18.710326166157646      14.287419999999999
    13   1      4.2598046339470237      18.710326166157646      18.390070000000001
    14   1      4.2598046339470237      18.710326166157646      22.492730000000002
    15   1      1.2961868856366945      11.300231688244425      14.287419999999999
    16   1      1.2961868856366945      11.300231688244425      18.390070000000001
    17   1      1.2961868856366945      11.300231688244425      22.492730000000002
    18   1      9.4466542477219644      20.933567316389162      18.390070000000001
    19   1      9.4466542477219644      20.933567316389162      22.492730000000002
    20   1      16.857632635444908      14.264146549095839      7.1900700000000004
    21   1      16.857632635444908      14.264146549095839      11.292730000000001
    22   1       15.37564270833502       17.96912136687056      3.0874199999999998
    23   1       15.37564270833502       17.96912136687056      7.1900700000000004
    24   1       15.37564270833502       17.96912136687056      11.292730000000001
    25   1      7.9648500159502538      17.228521934385931      14.287419999999999
    26   1      7.9648500159502538      17.228521934385931      18.390070000000001
    27   1      7.9648500159502538      17.228521934385931      22.492730000000002
    28   1      9.4466542477219644      20.933567316389162      14.287419999999999
    29   1      6.4830364994116341      13.523472838475943      14.287419999999999
    30   1      6.4830364994116341      13.523472838475943      18.390070000000001
    31   1      6.4830364994116341      13.523472838475943      22.492730000000002
    32   1      3.5194280358682115      6.1133820744694853      18.390070000000001
    33   1      3.5194280358682115      6.1133820744694853      22.492730000000002
    34   1      5.0012322676399217      9.8184274564727136      14.287419999999999
    35   1      5.0012322676399217      9.8184274564727136      18.390070000000001
    36   1      5.0012322676399217      9.8184274564727136      22.492730000000002
    37   1      17.598623885093087      1.6672414534286972      3.0874199999999998
    38   1      17.598623885093087      1.6672414534286972      7.1900700000000004
    39   1      2.0376145193295905      2.4083329785594936      14.287419999999999
    40   1      2.0376145193295905      2.4083329785594936      18.390070000000001
    41   1      2.0376145193295905      2.4083329785594936      22.492730000000002
    42   1      3.5194280358682115      6.1133820744694853      14.287419999999999
    43   1      13.151699629725194      19.451763084617451      14.287419999999999
    44   1      13.151699629725194      19.451763084617451      18.390070000000001
    45   1      13.151699629725194      19.451763084617451      22.492730000000002
    46   1       11.66989539795348      15.746717702614221      14.287419999999999
    47   1       11.66989539795348      15.746717702614221      18.390070000000001
    48   1       11.66989539795348      15.746717702614221      22.492730000000002
    49   1        8.70627764964315      8.3366232247010021      14.287419999999999
    50   1        8.70627764964315      8.3366232247010021      18.390070000000001
    51   1        8.70627764964315      8.3366232247010021      22.492730000000002
    52   1       10.18808188141486      12.041668606704231      14.287419999999999
    53   1       10.18808188141486      12.041668606704231      18.390070000000001
    54   1       10.18808188141486      12.041668606704231      22.492730000000002
    55   1      17.598623885093087      1.6672414534286972      11.292730000000001
    56   1      16.116633957983201      5.3722162712034178      3.0874199999999998
    57   1      16.116633957983201      5.3722162712034178      7.1900700000000004
    58   1      16.116633957983201      5.3722162712034178      11.292730000000001
    59   1      5.7426599013328188     0.92652874678778185      14.287419999999999
    60   1      5.7426599013328188     0.92652874678778185      18.390070000000001
    61   1      5.7426599013328188     0.92652874678778185      22.492730000000002
    62   1      7.2244734178714394      4.6315778426977738      14.287419999999999
    63   1      7.2244734178714394      4.6315778426977738      18.390070000000001
    64   1      7.2244734178714394      4.6315778426977738      22.492730000000002
    65   1      15.374944493863474      14.264904186075603      18.390070000000001
    66   1      15.374944493863474      14.264904186075603      22.492730000000002
    67   1      16.856748725635185      17.969949568078832      14.287419999999999
    68   1      16.856748725635185      17.969949568078832      18.390070000000001
    69   1      16.856748725635185      17.969949568078832      22.492730000000002
    70   1      14.634647744780075      9.0771818042112304      3.0874199999999998
    71   1      14.634647744780075      9.0771818042112304      7.1900700000000004
    72   1      14.634647744780075      9.0771818042112304      11.292730000000001
    73   1      13.893130977324855      10.559855090165611      14.287419999999999
    74   1      13.893130977324855      10.559855090165611      18.390070000000001
    75   1      13.893130977324855      10.559855090165611      22.492730000000002
    76   1      15.374944493863474      14.264904186075603      14.287419999999999
    77   1      12.411326745553142      6.8548097081623816      14.287419999999999
    78   1      12.411326745553142      6.8548097081623816      18.390070000000001
    79   1      12.411326745553142      6.8548097081623816      22.492730000000002
    80   1      20.561794107638413       16.48814533630712      14.287419999999999
    81   1      20.561794107638413       16.48814533630712      18.390070000000001
    82   1      20.561794107638413       16.48814533630712      22.492730000000002
    83   1      10.929522513781432      3.1497643261591541      14.287419999999999
    84   1      10.929522513781432      3.1497643261591541      18.390070000000001
    85   1      10.929522513781432      3.1497643261591541      22.492730000000002
    86   1      13.152657817670187      12.782156621985951      3.0874199999999998
    87   1      13.152657817670187      12.782156621985951      7.1900700000000004
    88   1      13.152657817670187      12.782156621985951      11.292730000000001
    89   1      11.670667890560297      16.487131439760674      3.0874199999999998
    90   1      11.670667890560297      16.487131439760674      7.1900700000000004
    91   1      11.670667890560297      16.487131439760674      11.292730000000001
    92   1      19.079989875866701      12.783099954303891      14.287419999999999
    93   1      19.079989875866701      12.783099954303891      18.390070000000001
    94   1      19.079989875866701      12.783099954303891      22.492730000000002
    95   1      16.116372127556371      5.3730054763906709      14.287419999999999
    96   1      16.116372127556371      5.3730054763906709      18.390070000000001
    97   1      16.116372127556371      5.3730054763906709      22.492730000000002
    98   1      17.598176359328082      9.0780508583938975      14.287419999999999
    99   1      17.598176359328082      9.0780508583938975      18.390070000000001
   100   1      17.598176359328082      9.0780508583938975      22.492730000000002
   101   1      10.188677963450409      20.192106257535393      3.0874199999999998
   102   1      10.188677963450409      20.192106257535393      7.1900700000000004
   103   1      10.188677963450409      20.192106257535393      11.292730000000001
   104   1       21.30322174133131      7.5962466266221869      14.287419999999999
   105   1       21.30322174133131      7.5962466266221869      18.390070000000001
   106   1       21.30322174133131      7.5962466266221869      22.492730000000002
   107   1      14.634567895784659      1.6679600943874422      14.287419999999999
   108   1      14.634567895784659      1.6679600943874422      18.390070000000001
   109   1      14.634567895784659      1.6679600943874422      22.492730000000002
   110   1      18.339613277787887     0.18615586261573039      14.287419999999999
   111   1      18.339613277787887     0.18615586261573039      18.390070000000001
   112   1      18.339613277787887     0.18615586261573039      22.492730000000002
   113   1      19.821417509559602       3.891201244618959      14.287419999999999
   114   1      19.821417509559602       3.891201244618959      18.390070000000001
   115   1      19.821417509559602       3.891201244618959      22.492730000000002
   116   1      13.893649067318369     0.18525152631880931      3.0874199999999998
   117   1      13.893649067318369     0.18525152631880931      7.1900700000000004
   118   1      13.893649067318369     0.18525152631880931      11.292730000000001
   119   1      12.411659140208481      3.8902263440935303      3.0874199999999998
   120   1      12.411659140208481      3.8902263440935303      7.1900700000000004
   121   1      12.411659140208481      3.8902263440935303      11.292730000000001
   122   1     0.55574343723613562      12.041161658431006      7.1900700000000004
   123   1     0.55574343723613562      12.041161658431006      11.292730000000001
   124   1      2.0377333643460243      8.3361868406562856      3.0874199999999998
   125   1      2.0377333643460243      8.3361868406562856      7.1900700000000004
   126   1      2.0377333643460243      8.3361868406562856      11.292730000000001
   127   1     0.55574343723613562      12.041161658431006      3.0874199999999998
   128   1      5.0017095046590372     0.92624648987375291      3.0874199999999998
   129   1      5.0017095046590372     0.92624648987375291      7.1900700000000004
   130   1      5.0017095046590372     0.92624648987375291      11.292730000000001
   131   1      3.5197232914559122      4.6312120228815656      3.0874199999999998
   132   1      3.5197232914559122      4.6312120228815656      7.1900700000000004
   133   1      3.5197232914559122      4.6312120228815656      11.292730000000001
   134   1      10.929672927005356      7.5951918771013425      3.0874199999999998
   135   1      10.929672927005356      7.5951918771013425      7.1900700000000004
   136   1      10.929672927005356      7.5951918771013425      11.292730000000001
   137   1      1.2967384007910796       20.93310122109034      3.0874199999999998
   138   1      1.2967384007910796       20.93310122109034      7.1900700000000004
   139   1      1.2967384007910796       20.93310122109034      11.292730000000001
   140   1      4.2607182550108567      13.523151585540896      3.0874199999999998
   141   1      4.2607182550108567      13.523151585540896      7.1900700000000004
   142   1      4.2607182550108567      13.523151585540896      11.292730000000001
   143   1      2.7787283279009682      17.228126403315617      3.0874199999999998
   144   1      2.7787283279009682      17.228126403315617      7.1900700000000004
   145   1      2.7787283279009682      17.228126403315617      11.292730000000001
   146   1      5.7427081821207446      9.8181767677661753      3.0874199999999998
   147   1      5.7427081821207446      9.8181767677661753      7.1900700000000004
   148   1      5.7427081821207446      9.8181767677661753      11.292730000000001
   149   1      9.4476829998954681      11.300166694876063      3.0874199999999998
   150   1      9.4476829998954681      11.300166694876063      7.1900700000000004
   151   1      9.4476829998954681      11.300166694876063      11.292730000000001
   152   1      7.9656930727855793      15.005141512650784      3.0874199999999998
   153   1      7.9656930727855793      15.005141512650784      7.1900700000000004
   154   1      7.9656930727855793      15.005141512650784      11.292730000000001
   155   1      7.2246981092306335      6.1132019499914545      3.0874199999999998
   156   1      7.2246981092306335      6.1132019499914545      7.1900700000000004
   157   1      7.2246981092306335      6.1132019499914545      11.292730000000001
   158   1      8.7066843224337589      2.4082364169836419      3.0874199999999998
   159   1      8.7066843224337589      2.4082364169836419      7.1900700000000004
   160   1      8.7066843224337589      2.4082364169836419      11.292730000000001
   161   1      6.4837031456756904      18.710116330425507      3.0874199999999998
   162   1      6.4837031456756904      18.710116330425507      7.1900700000000004
   163   1      6.4837031456756904      18.710116330425507      11.292730000000001
   164   1      19.080617526109741       19.45111129398045      3.0874199999999998
   165   1      19.080617526109741       19.45111129398045      7.1900700000000004
   166   1      19.080617526109741       19.45111129398045      11.292730000000001
   167   1      21.303598702867809      3.1492313805385863      3.0874199999999998
   168   1      21.303598702867809      3.1492313805385863      7.1900700000000004
   169   1      21.303598702867809      3.1492313805385863      11.292730000000001
   170   1      19.821608775757923      6.8542061983133067      3.0874199999999998
   171   1      19.821608775757923      6.8542061983133067      7.1900700000000004
   172   1     0.55475553803703515      20.192139682696265      14.287419999999999
   173   1     0.55475553803703515      20.192139682696265      18.390070000000001
   174   1     0.55475553803703515      20.192139682696265      22.492730000000002
   175   2      3.1481803449245027      21.303760257812023                14.14969
   176   2      19.080617526109741      8.7066843224337589                 5.06358
   177   2        20.9331049349971      9.4476792859887038      7.0523499999999997
   178   2      20.192109971442157      11.300166694876065      9.1662400000000002
   179   2      19.080617526109741      8.7066843224337589      9.1662400000000002
   180   2        20.9331049349971      9.4476792859887038      11.154999999999999
   181   2      5.3714159242958743      16.116897645363412                14.14969
   182   2      6.1123273249486401       17.96942405027179      16.263580000000001
   183   2      9.0771855181179948       17.59862388509309      2.9496899999999999
   184   2      8.3361905545630499       19.45111129398045                 5.06358
   185   2      21.303602416774574      13.893649067318368      9.1662400000000002
   186   2      20.933104934997104      20.192106257535393                 5.06358
   187   2      19.821612489664684       17.59862388509309                 5.06358
   188   2      20.562603739312866      5.0017187894259463      9.1662400000000002
   189   2      18.339622562554794      21.303598702867809                 5.06358
   190   2      18.339622562554794      21.303598702867809      9.1662400000000002
   191   2      7.5951955910081059      21.303598702867809      7.0523499999999997
   192   2      5.7427081821207464      20.562603739312866      9.1662400000000002
   193   2      7.5951955910081059      21.303598702867809      11.154999999999999
   194   2      9.8181804816729379      15.746136476205729                 5.06358
   195   2      8.7066880363405232      13.152654103763425                 5.06358
   196   2      10.559175445227883      13.893649067318368      7.0523499999999997
   197   2      9.8181804816729379      15.746136476205729      9.1662400000000002
   198   2      8.7066880363405232      13.152654103763425      9.1662400000000002
   199   2      10.559175445227883      13.893649067318368      11.154999999999999
   200   2      19.821612489664684       17.59862388509309      9.1662400000000002
   201   2      10.559175445227883      13.893649067318368      2.9496899999999999
   202   2       1.666366828385883      17.598711161902031                14.14969
   203   2      2.4072782290386479      19.451237566810409      16.263580000000001
   204   2       1.666366828385883      17.598711161902031                18.25235
   205   2      2.4072782290386479      19.451237566810409      20.366240000000001
   206   2      3.1481803449245027      21.303760257812023                18.25235
   207   2      11.300170408782828      12.041161658431006      9.1662400000000002
   208   2      10.188677963450411       9.447679285988702      9.1662400000000002
   209   2      12.041165372337771      10.188674249543647      11.154999999999999
   210   2      11.300166694876063      1.2967439716512246      2.9496899999999999
   211   2       10.55917173132112      3.1492313805385854                 5.06358
   212   2       9.447679285988702     0.55574900809628103                 5.06358
   213   2      11.300166694876063      1.2967439716512246      7.0523499999999997
   214   2       10.55917173132112      3.1492313805385854      9.1662400000000002
   215   2       9.447679285988702     0.55574900809628103      9.1662400000000002
   216   2      11.300166694876063      1.2967439716512246      11.154999999999999
   217   2      9.8181804816729379      5.0017095046590372      2.9496899999999999
   218   2      9.0771855181179948      6.8541969135463976                 5.06358
   219   2      7.9656930727855775      4.2607145411040932                 5.06358
   220   2      7.2246981092306344      16.857628921538147                 5.06358
   221   2      9.0771855181179948       17.59862388509309      7.0523499999999997
   222   2      8.3361905545630499       19.45111129398045      9.1662400000000002
   223   2      4.6305138084100204      14.264374954361797      20.366240000000001
   224   2      2.0370890015225496      13.152754379246039      20.366240000000001
   225   2      3.8896116925241637      12.411852263360183                  22.355
   226   2      1.6669053448665967      6.8542841903553411      16.263580000000001
   227   2     0.92599394421383219       5.001757785446963                18.25235
   228   2      1.6669053448665967      6.8542841903553411      20.366240000000001
   229   2     0.92599394421383219       5.001757785446963                  22.355
   230   2      2.4078074607524527      8.7068068813569557                14.14969
   231   2      3.1487095766383071      10.559329572358569      16.263580000000001
   232   2     0.55528476975083818      9.4477089972428097      16.263580000000001
   233   2      8.3361905545630499      8.7066843224337571      11.154999999999999
   234   2      13.523155299447659       6.483699431768926      11.154999999999999
   235   2      12.041165372337771      10.188674249543647      2.9496899999999999
   236   2      11.300170408782828      12.041161658431006                 5.06358
   237   2      10.188677963450411       9.447679285988702                 5.06358
   238   2      12.041165372337771      10.188674249543647      7.0523499999999997
   239   2       6.113205663898218      14.264146549095839      9.1662400000000002
   240   2      5.0017132185658006      11.670664176653537      9.1662400000000002
   241   2      6.8542006274531619       12.41165914020848      11.154999999999999
   242   2      9.8181804816729379      5.0017095046590372      7.0523499999999997
   243   2      9.0771855181179948      6.8541969135463976      9.1662400000000002
   244   2      7.9656930727855775      4.2607145411040932      9.1662400000000002
   245   2      9.8181804816729379      5.0017095046590372      11.154999999999999
   246   2      8.3361905545630499      8.7066843224337571      2.9496899999999999
   247   2      7.5951955910081059      10.559171731321118                 5.06358
   248   2      6.4837031456756895       7.965689358878814                 5.06358
   249   2      8.3361905545630499      8.7066843224337571      7.0523499999999997
   250   2      7.5951955910081059      10.559171731321118      9.1662400000000002
   251   2      6.4837031456756895       7.965689358878814      9.1662400000000002
   252   2      4.6305138084100204      14.264374954361797      16.263580000000001
   253   2      2.0370890015225496      13.152754379246039      16.263580000000001
   254   2      3.8896116925241637      12.411852263360183                18.25235
   255   2      12.782160335892716      8.3361868406562873      9.1662400000000002
   256   2      11.670667890560299      5.7427044682139821      9.1662400000000002
   257   2      5.3722107003432731      16.116633957983201      2.9496899999999999
   258   2      4.6312157367883291       17.96912136687056                 5.06358
   259   2      3.5197232914559118      15.375638994428257                 5.06358
   260   2      5.3722107003432731      16.116633957983201      7.0523499999999997
   261   2      4.6312157367883291       17.96912136687056      9.1662400000000002
   262   2      3.5197232914559118      15.375638994428257      9.1662400000000002
   263   2      5.3722107003432731      16.116633957983201      11.154999999999999
   264   2      3.8902207732333856       19.82160877575792      2.9496899999999999
   265   2      2.0377333643460243      19.080613812202976                 5.06358
   266   2      3.8902207732333856       19.82160877575792      7.0523499999999997
   267   2      6.8542006274531619       12.41165914020848      2.9496899999999999
   268   2       6.113205663898218      14.264146549095839                 5.06358
   269   2      5.0017132185658006      11.670664176653537                 5.06358
   270   2      6.8542006274531619       12.41165914020848      7.0523499999999997
   271   2      3.8902207732333856       19.82160877575792      11.154999999999999
   272   2      6.8541969135463976      1.6672414534286968                 5.06358
   273   2      6.8541969135463976      1.6672414534286968      9.1662400000000002
   274   2      6.1132056638982171      3.5197195775491483      2.9496899999999999
   275   2      5.3722107003432731      5.3722069864365096                 5.06358
   276   2      4.2607182550108567      2.7787246139942043                 5.06358
   277   2      6.1132056638982171      3.5197195775491483      7.0523499999999997
   278   2      13.152654103763425      2.0377389352061694                 5.06358
   279   2      15.005141512650784      2.7787338987611134      7.0523499999999997
   280   2      14.264146549095841      4.6312213076484738      9.1662400000000002
   281   2      13.152654103763425      2.0377389352061694      9.1662400000000002
   282   2      15.005141512650784      2.7787338987611134      11.154999999999999
   283   2      13.523155299447659       6.483699431768926      2.9496899999999999
   284   2      12.782160335892716      8.3361868406562873                 5.06358
   285   2      11.670667890560299      5.7427044682139821                 5.06358
   286   2      13.523155299447659       6.483699431768926      7.0523499999999997
   287   2      1.2967384007910796      10.188674249543647      9.1662400000000002
   288   2      3.1492258096784398      10.929669213098592      11.154999999999999
   289   2      1.6672358825685516      14.634644030873313      2.9496899999999999
   290   2     0.92624091901360761       16.48713143976067                 5.06358
   291   2      1.6672358825685516      14.634644030873313      7.0523499999999997
   292   2      5.3722107003432731      5.3722069864365096      9.1662400000000002
   293   2      4.2607182550108567      2.7787246139942043      9.1662400000000002
   294   2      6.1132056638982171      3.5197195775491483      11.154999999999999
   295   2      4.6312157367883291      7.2246943953238691      2.9496899999999999
   296   2      3.8902207732333847      9.0771818042112304                 5.06358
   297   2      2.7787283279009682      6.4836994317689252                 5.06358
   298   2      4.6312157367883291      7.2246943953238691      7.0523499999999997
   299   2      3.8902207732333847      9.0771818042112304      9.1662400000000002
   300   2      2.7787283279009682      6.4836994317689252      9.1662400000000002
   301   2      4.6312157367883291      7.2246943953238691      11.154999999999999
   302   2      2.0377333643460243      19.080613812202976      9.1662400000000002
   303   2      2.4078074607524527      8.7068068813569557                18.25235
   304   2      3.1487095766383071      10.559329572358569      20.366240000000001
   305   2     0.55528476975083818      9.4477089972428097      20.366240000000001
   306   2      2.4078074607524527      8.7068068813569557                  22.355
   307   2      10.558274822837724      18.340142509501693                14.14969
   308   2      11.299176938723582      20.192665200503306      16.263580000000001
   309   2      8.7057521318361104      19.081044625387548      16.263580000000001
   310   2      10.558274822837724      18.340142509501693                18.25235
   311   2      11.299176938723582      20.192665200503306      20.366240000000001
   312   2      8.7057521318361104      19.081044625387548      20.366240000000001
   313   2      10.558274822837724      18.340142509501693                  22.355
   314   2     0.18509182832797647      3.1492350944453489      16.263580000000001
   315   2     0.18509182832797647      3.1492350944453489      20.366240000000001
   316   2      1.2967384007910796      10.188674249543647                 5.06358
   317   2      3.1492258096784398      10.929669213098592      7.0523499999999997
   318   2      2.4082308461234962      12.782156621985951      9.1662400000000002
   319   2      15.005141512650784      2.7787338987611134      2.9496899999999999
   320   2      14.264146549095841      4.6312213076484738                 5.06358
   321   2     0.92624091901360761       16.48713143976067      9.1662400000000002
   322   2      1.6672358825685516      14.634644030873313      11.154999999999999
   323   2     0.18524595545866374      18.339618848648033      2.9496899999999999
   324   2     0.18524595545866374      18.339618848648033      7.0523499999999997
   325   2     0.18524595545866374      18.339618848648033      11.154999999999999
   326   2      3.1492220957716768      0.1852515263188089                 5.06358
   327   2      3.1492220957716768      0.1852515263188089      9.1662400000000002
   328   2      2.4082308461234962      2.0377296504392604      2.9496899999999999
   329   2      1.6672358825685518      3.8902170593266212                 5.06358
   330   2      0.5557434372361354      1.2967346868843161                 5.06358
   331   2      2.4082308461234962      2.0377296504392604      7.0523499999999997
   332   2      1.6672358825685518      3.8902170593266212      9.1662400000000002
   333   2      3.1492258096784398      10.929669213098592      2.9496899999999999
   334   2      2.4082308461234962      12.782156621985951                 5.06358
   335   2      20.562319625445451      5.7437239356205723      20.366240000000001
   336   2      16.487090586786273     0.92705797850158655      16.263580000000001
   337   2      16.487090586786273     0.92705797850158655      20.366240000000001
   338   2      0.5557434372361354      1.2967346868843161      9.1662400000000002
   339   2      2.4082308461234962      2.0377296504392604      11.154999999999999
   340   2     0.92624091901360783      5.7427044682139812      2.9496899999999999
   341   2     0.18524595545866365      7.5951918771013416                 5.06358
   342   2     0.92624091901360783      5.7427044682139812      7.0523499999999997
   343   2     0.18524595545866365      7.5951918771013416      9.1662400000000002
   344   2     0.92624091901360783      5.7427044682139812      11.154999999999999
   345   2      12.782160335892714      19.080613812202976      7.0523499999999997
   346   2      12.041165372337769      20.933101221090336      9.1662400000000002
   347   2      10.929672927005354      18.339618848648033      9.1662400000000002
   348   2      12.782160335892714      19.080613812202976      11.154999999999999
   349   2      15.746136476205729     0.92624648987375324                 5.06358
   350   2      15.746136476205729     0.92624648987375324      9.1662400000000002
   351   2     0.92599394421383219       5.001757785446963                14.14969
   352   2      19.451115007887214      13.152654103763425      2.9496899999999999
   353   2      18.710120044332267      15.005141512650784                 5.06358
   354   2      17.598627598999855       12.41165914020848                 5.06358
   355   2      19.451115007887214      13.152654103763425      7.0523499999999997
   356   2      18.710120044332267      15.005141512650784      9.1662400000000002
   357   2      17.598627598999855       12.41165914020848      9.1662400000000002
   358   2      19.451115007887214      13.152654103763425      11.154999999999999