(written by ASE)

12504 atoms
3 atom types

0.0      91.082096446449796  xlo xhi
0.0      91.082096446449796  ylo yhi
0.0                      50  zlo zhi

Masses

     1       137.3269999646734 # Ba
     2      15.998999995884349 # O
     3      47.866999987686484 # Ti

Atoms # atomic

     1   1      20.672666641209226      30.724910830308939      7.1900700000000004
     2   1      20.672666641209226      30.724910830308939      3.0874199999999998
     3   1      24.518744522640855      23.732041954978701      7.1900700000000004
     4   1      24.518744522640855      23.732041954978701      3.0874199999999998
     5   1      22.595705581925039       27.22847639264382      11.292730000000001
     6   1      22.595705581925039       27.22847639264382      7.1900700000000004
     7   1      5.0260414826862618      2.9284033789279933      22.492730000000002
     8   1      5.0260414826862618      2.9284033789279933      18.390070000000001
     9   1       88.32865548571111      81.598022259961425      11.292730000000001
    10   1       88.32865548571111      81.598022259961425      7.1900700000000004
    11   1       88.32865548571111      81.598022259961425      3.0874199999999998
    12   1      86.405616544995283      85.094456697626541      11.292730000000001
    13   1      50.128451015612498      60.096341461075966      22.492730000000002
    14   1      50.128451015612498      60.096341461075966      18.390070000000001
    15   1      50.128451015612498      60.096341461075966      14.287419999999999
    16   1      50.916815764853403      33.696875283136791      7.1900700000000004
    17   1      5.0260414826862618      2.9284033789279933      14.287419999999999
    18   1      1.5295531577427588      4.8513389261665854      22.492730000000002
    19   1      1.5295531577427588      4.8513389261665854      18.390070000000001
    20   1      1.5295531577427588      4.8513389261665854      14.287419999999999
    21   1      90.251694426426923      78.101587822296295      11.292730000000001
    22   1      90.251694426426923      78.101587822296295      7.1900700000000004
    23   1      90.251694426426923      78.101587822296295      3.0874199999999998
    24   1      8.5225346268172615      1.0054590695303152      22.492730000000002
    25   1      8.5225346268172615      1.0054590695303152      18.390070000000001
    26   1      8.5225346268172615      1.0054590695303152      14.287419999999999
    27   1      89.902050982660384      87.017495638342353      11.292730000000001
    28   1      89.902050982660384      87.017495638342353      7.1900700000000004
    29   1      89.902050982660384      87.017495638342353      3.0874199999999998
    30   1      87.979012041944571      90.513930076007469      11.292730000000001
    31   1      87.979012041944571      90.513930076007469      7.1900700000000004
    32   1      20.672666641209226      30.724910830308939      11.292730000000001
    33   1      13.941958498999355      2.5790118472352255      22.492730000000002
    34   1      13.941958498999355      2.5790118472352255      18.390070000000001
    35   1      13.941958498999355      2.5790118472352255      14.287419999999999
    36   1      24.518744522640855      23.732041954978701      11.292730000000001
    37   1      28.364822404072484      16.739173079648463      11.292730000000001
    38   1      28.364822404072484      16.739173079648463      7.1900700000000004
    39   1      28.364822404072484      16.739173079648463      3.0874199999999998
    40   1      16.826588759777593      37.717779705639174      7.1900700000000004
    41   1      16.826588759777593      37.717779705639174      3.0874199999999998
    42   1      14.903549819061778      41.214214143304297      11.292730000000001
    43   1      14.903549819061778      41.214214143304297      7.1900700000000004
    44   1      14.903549819061778      41.214214143304297      3.0874199999999998
    45   1      32.210895466316614      9.7463129664773138      7.1900700000000004
    46   1      32.210895466316614      9.7463129664773138      3.0874199999999998
    47   1      82.909182107330153      83.171417756910728      3.0874199999999998
    48   1       80.98614316661434      86.667852194575843      11.292730000000001
    49   1      34.133934407032434      6.2498785288121947      3.0874199999999998
    50   1      3.4524974671404371       8.347832070297585      22.492730000000002
    51   1      3.4524974671404371       8.347832070297585      18.390070000000001
    52   1      3.4524974671404371       8.347832070297585      14.287419999999999
    53   1      86.755259988761793      76.178548881580483      11.292730000000001
    54   1      86.755259988761793      76.178548881580483      7.1900700000000004
    55   1      86.755259988761793      76.178548881580483      3.0874199999999998
    56   1      10.445470174055853      4.5019473944738175      22.492730000000002
    57   1      10.445470174055853      4.5019473944738175      18.390070000000001
    58   1      10.445470174055853      4.5019473944738175      14.287419999999999
    59   1      6.9489818491123492      6.4248829417124087      22.492730000000002
    60   1       84.83222104804598      79.674983319245598      11.292730000000001
    61   1       84.83222104804598      79.674983319245598      7.1900700000000004
    62   1       84.83222104804598      79.674983319245598      3.0874199999999998
    63   1      82.909182107330153      83.171417756910728      11.292730000000001
    64   1      82.909182107330153      83.171417756910728      7.1900700000000004
    65   1      22.857871572340859       2.229606734195873      18.390070000000001
    66   1      22.857871572340859       2.229606734195873      14.287419999999999
    67   1      90.601337870193419      69.185680006250251      3.0874199999999998
    68   1      88.678298929477606      72.682114443915367      11.292730000000001
    69   1      88.678298929477606      72.682114443915367      7.1900700000000004
    70   1      88.678298929477606      72.682114443915367      3.0874199999999998
    71   1      6.9489818491123492      6.4248829417124087      18.390070000000001
    72   1      6.9489818491123492      6.4248829417124087      14.287419999999999
    73   1      30.287856525600802      13.242747404142431      11.292730000000001
    74   1      30.287856525600802      13.242747404142431      7.1900700000000004
    75   1      30.287856525600802      13.242747404142431      3.0874199999999998
    76   1      12.980510878345962      44.710648580969419      11.292730000000001
    77   1      12.980510878345962      44.710648580969419      7.1900700000000004
    78   1      12.980510878345962      44.710648580969419      3.0874199999999998
    79   1      34.133934407032434      6.2498785288121947      11.292730000000001
    80   1      34.133934407032434      6.2498785288121947      7.1900700000000004
    81   1      75.566669788233412      88.241247691525146      7.1900700000000004
    82   1      75.566669788233412      88.241247691525146      3.0874199999999998
    83   1      90.601337870193419      69.185680006250251      11.292730000000001
    84   1      90.601337870193419      69.185680006250251      7.1900700000000004
    85   1      26.354359897284361     0.30667118695728168      22.492730000000002
    86   1      26.354359897284361     0.30667118695728168      18.390070000000001
    87   1      26.354359897284361     0.30667118695728168      14.287419999999999
    88   1      32.210895466316614      9.7463129664773138      11.292730000000001
    89   1      36.056973347748247      2.7534440911470761      11.292730000000001
    90   1      36.056973347748247      2.7534440911470761      7.1900700000000004
    91   1      36.056973347748247      2.7534440911470761      3.0874199999999998
    92   1      11.057471937630149      48.207083018634528      11.292730000000001
    93   1      11.057471937630149      48.207083018634528      7.1900700000000004
    94   1      11.057471937630149      48.207083018634528      3.0874199999999998
    95   1      9.1344329969143345       51.70351745629965      11.292730000000001
    96   1      22.857871572340859       2.229606734195873      22.492730000000002
    97   1      15.864898865425445      6.0754914100196418      18.390070000000001
    98   1      15.864898865425445      6.0754914100196418      14.287419999999999
    99   1      9.1344329969143345       51.70351745629965      7.1900700000000004
   100   1      9.1344329969143345       51.70351745629965      3.0874199999999998
   101   1       7.211398875386017      55.199943131805682      11.292730000000001
   102   1       7.211398875386017      55.199943131805682      7.1900700000000004
   103   1       7.211398875386017      55.199943131805682      3.0874199999999998
   104   1      3.7149644377208944      53.276904191089862      7.1900700000000004
   105   1      3.7149644377208944      53.276904191089862      3.0874199999999998
   106   1      1.7919254970050784      56.773338628754985      11.292730000000001
   107   1      1.7919254970050784      56.773338628754985      7.1900700000000004
   108   1      1.7919254970050784      56.773338628754985      3.0874199999999998
   109   1      19.361387190368944      4.1525558627810488      22.492730000000002
   110   1      19.361387190368944      4.1525558627810488      18.390070000000001
   111   1      19.361387190368944      4.1525558627810488      14.287419999999999
   112   1      75.566669788233412      88.241247691525146      11.292730000000001
   113   1      81.335786610380865      77.751944378529785      11.292730000000001
   114   1      81.335786610380865      77.751944378529785      7.1900700000000004
   115   1      81.335786610380865      77.751944378529785      3.0874199999999998
   116   1      12.368414483453531      7.9984405386048172      22.492730000000002
   117   1      12.368414483453531      7.9984405386048172      18.390070000000001
   118   1      12.368414483453531      7.9984405386048172      14.287419999999999
   119   1      8.8719261585100302      9.9213760858434092      22.492730000000002
   120   1      8.8719261585100302      9.9213760858434092      18.390070000000001
   121   1      8.8719261585100302      9.9213760858434092      14.287419999999999
   122   1      79.412747669665038      81.248378816194915      11.292730000000001
   123   1      79.412747669665038      81.248378816194915      7.1900700000000004
   124   1      79.412747669665038      81.248378816194915      3.0874199999999998
   125   1      77.489708728949225       84.74481325386003      11.292730000000001
   126   1      77.489708728949225       84.74481325386003      7.1900700000000004
   127   1      77.489708728949225       84.74481325386003      3.0874199999999998
   128   1      15.864898865425445      6.0754914100196418      22.492730000000002
   129   1      1.8789534515946127      13.767260761667178      18.390070000000001
   130   1      1.8789534515946127      13.767260761667178      14.287419999999999
   131   1      83.258825551096677       74.25550994086467      11.292730000000001
   132   1      83.258825551096677       74.25550994086467      7.1900700000000004
   133   1      83.258825551096677       74.25550994086467      3.0874199999999998
   134   1      5.3754330143790288      11.844320395241086      22.492730000000002
   135   1       5.637998559249211       49.78047851558383      11.292730000000001
   136   1       5.637998559249211       49.78047851558383      7.1900700000000004
   137   1       5.637998559249211       49.78047851558383      3.0874199999999998
   138   1      3.7149644377208944      53.276904191089862      11.292730000000001
   139   1      5.2883599346702006      58.696377569470798      11.292730000000001
   140   1      5.2883599346702006      58.696377569470798      7.1900700000000004
   141   1      5.2883599346702006      58.696377569470798      3.0874199999999998
   142   1      7.5610374999650274      46.284044077918715      11.292730000000001
   143   1      5.3754330143790288      11.844320395241086      18.390070000000001
   144   1      5.3754330143790288      11.844320395241086      14.287419999999999
   145   1       85.18186449181249      70.759075503199554      11.292730000000001
   146   1       85.18186449181249      70.759075503199554      7.1900700000000004
   147   1       85.18186449181249      70.759075503199554      3.0874199999999998
   148   1      31.773788588653954      1.8802152025031063      22.492730000000002
   149   1      7.5610374999650274      46.284044077918715      7.1900700000000004
   150   1      7.5610374999650274      46.284044077918715      3.0874199999999998
   151   1      3.3653209939543851       62.19281200713592      11.292730000000001
   152   1      3.3653209939543851       62.19281200713592      7.1900700000000004
   153   1      3.3653209939543851       62.19281200713592      3.0874199999999998
   154   1       1.442282053238569      65.689246444801043      11.292730000000001
   155   1      11.407115381396656      39.291175202588477      7.1900700000000004
   156   1      11.407115381396656      39.291175202588477      3.0874199999999998
   157   1      9.4840764406808393      42.787609640253599      11.292730000000001
   158   1      9.4840764406808393      42.787609640253599      7.1900700000000004
   159   1      31.773788588653954      1.8802152025031063      18.390070000000001
   160   1      1.8789534515946127      13.767260761667178      22.492730000000002
   161   1      89.027942373244116      63.766206627869316      7.1900700000000004
   162   1      89.027942373244116      63.766206627869316      3.0874199999999998
   163   1      31.773788588653954      1.8802152025031063      14.287419999999999
   164   1      28.277300263710451      3.8031507497416959      22.492730000000002
   165   1      9.4840764406808393      42.787609640253599      3.0874199999999998
   166   1       1.442282053238569      65.689246444801043      7.1900700000000004
   167   1       1.442282053238569      65.689246444801043      3.0874199999999998
   168   1      13.330154322112472      35.794740764923361      11.292730000000001
   169   1      13.330154322112472      35.794740764923361      7.1900700000000004
   170   1      13.330154322112472      35.794740764923361      3.0874199999999998
   171   1      11.407115381396656      39.291175202588477      11.292730000000001
   172   1      28.277300263710451      3.8031507497416959      18.390070000000001
   173   1      28.277300263710451      3.8031507497416959      14.287419999999999
   174   1      87.104903432528303      67.262641065534439      11.292730000000001
   175   1      87.104903432528303      67.262641065534439      7.1900700000000004
   176   1      87.104903432528303      67.262641065534439      3.0874199999999998
   177   1      15.253193262828287      32.298306327258238      11.292730000000001
   178   1      15.253193262828287      32.298306327258238      7.1900700000000004
   179   1      15.253193262828287      32.298306327258238      3.0874199999999998
   180   1      41.476446726129176      1.1800485941977685      11.292730000000001
   181   1      41.476446726129176      1.1800485941977685      7.1900700000000004
   182   1      41.476446726129176      1.1800485941977685      3.0874199999999998
   183   1      19.099271144259916      25.305437451928004      7.1900700000000004
   184   1      19.099271144259916      25.305437451928004      3.0874199999999998
   185   1      17.176232203544103      28.801871889593123      11.292730000000001
   186   1      17.176232203544103      28.801871889593123      7.1900700000000004
   187   1      17.176232203544103      28.801871889593123      3.0874199999999998
   188   1      17.787843174823124      9.5719845541506423      18.390070000000001
   189   1      24.780815881738537      5.7260998783268731      22.492730000000002
   190   1      24.780815881738537      5.7260998783268731      18.390070000000001
   191   1      24.780815881738537      5.7260998783268731      14.287419999999999
   192   1      89.027942373244116      63.766206627869316      11.292730000000001
   193   1      17.787843174823124      9.5719845541506423      14.287419999999999
   194   1      14.291354849879621      11.494920101389233      22.492730000000002
   195   1      14.291354849879621      11.494920101389233      18.390070000000001
   196   1      14.291354849879621      11.494920101389233      14.287419999999999
   197   1      72.070235350568296      86.318208750809319      7.1900700000000004
   198   1      72.070235350568296      86.318208750809319      3.0874199999999998
   199   1      70.147201229039979      89.814634426315351      11.292730000000001
   200   1      70.147201229039979      89.814634426315351      7.1900700000000004
   201   1      70.147201229039979      89.814634426315351      3.0874199999999998
   202   1      90.950981313959929      60.269772190204193      11.292730000000001
   203   1      90.950981313959929      60.269772190204193      7.1900700000000004
   204   1      90.950981313959929      60.269772190204193      3.0874199999999998
   205   1      21.284327556795034      7.6490354255654651      22.492730000000002
   206   1      21.284327556795034      7.6490354255654651      18.390070000000001
   207   1      21.284327556795034      7.6490354255654651      14.287419999999999
   208   1      17.787843174823124      9.5719845541506423      22.492730000000002
   209   1      19.099271144259916      25.305437451928004      11.292730000000001
   210   1      7.2983821429642042         15.340804777213      22.492730000000002
   211   1      7.2983821429642042         15.340804777213      18.390070000000001
   212   1      7.2983821429642042         15.340804777213      14.287419999999999
   213   1       3.801888998833205      17.263749086610677      22.492730000000002
   214   1       3.801888998833205      17.263749086610677      18.390070000000001
   215   1      75.916313231999922      79.325339875479088      11.292730000000001
   216   1      75.916313231999922      79.325339875479088      7.1900700000000004
   217   1      75.916313231999922      79.325339875479088      3.0874199999999998
   218   1      10.794861705748621      13.417864410786912      22.492730000000002
   219   1      10.794861705748621      13.417864410786912      18.390070000000001
   220   1      10.794861705748621      13.417864410786912      14.287419999999999
   221   1      73.993274291284109      82.821774313144203      11.292730000000001
   222   1      73.993274291284109      82.821774313144203      7.1900700000000004
   223   1      73.993274291284109      82.821774313144203      3.0874199999999998
   224   1      72.070235350568296      86.318208750809319      11.292730000000001
   225   1      79.762391113431562      72.332471000148843      7.1900700000000004
   226   1      79.762391113431562      72.332471000148843      3.0874199999999998
   227   1      77.839352172715749      75.828905437813972      11.292730000000001
   228   1      77.839352172715749      75.828905437813972      7.1900700000000004
   229   1      77.839352172715749      75.828905437813972      3.0874199999999998
   230   1       3.801888998833205      17.263749086610677      14.287419999999999
   231   1     0.30540943604878867      19.186689453036767      22.492730000000002
   232   1     0.30540943604878867      19.186689453036767      18.390070000000001
   233   1     0.30540943604878867      19.186689453036767      14.287419999999999
   234   1      39.553407785413363      4.6764830318628876      11.292730000000001
   235   1      39.553407785413363      4.6764830318628876      7.1900700000000004
   236   1      39.553407785413363      4.6764830318628876      3.0874199999999998
   237   1      37.630368844697543      8.1729174695280058      11.292730000000001
   238   1      21.022310084975732      21.809003014262885      11.292730000000001
   239   1      21.022310084975732      21.809003014262885      7.1900700000000004
   240   1      21.022310084975732      21.809003014262885      3.0874199999999998
   241   1      81.685430054147375      68.836036562483727      7.1900700000000004
   242   1      81.685430054147375      68.836036562483727      3.0874199999999998
   243   1      79.762391113431562      72.332471000148843      11.292730000000001
   244   1      40.689710424154548       1.530814908651253      22.492730000000002
   245   1      22.945349025691549      18.312568576597766      11.292730000000001
   246   1      22.945349025691549      18.312568576597766      7.1900700000000004
   247   1      22.945349025691549      18.312568576597766      3.0874199999999998
   248   1      37.630368844697543      8.1729174695280058      7.1900700000000004
   249   1      37.630368844697543      8.1729174695280058      3.0874199999999998
   250   1       35.70732990398173      11.669351907193125      11.292730000000001
   251   1       35.70732990398173      11.669351907193125      7.1900700000000004
   252   1       35.70732990398173      11.669351907193125      3.0874199999999998
   253   1      26.791422087935679      11.319708463426615      7.1900700000000004
   254   1      26.791422087935679      11.319708463426615      3.0874199999999998
   255   1      40.689710424154548       1.530814908651253      18.390070000000001
   256   1      40.689710424154548       1.530814908651253      14.287419999999999
   257   1      83.608468994863188      65.339602124818612      7.1900700000000004
   258   1      83.608468994863188      65.339602124818612      3.0874199999999998
   259   1      24.868387966407361      14.816134138932648      11.292730000000001
   260   1      24.868387966407361      14.816134138932648      7.1900700000000004
   261   1      24.868387966407361      14.816134138932648      3.0874199999999998
   262   1      33.784290963265917      15.165786344858242      11.292730000000001
   263   1      33.784290963265917      15.165786344858242      7.1900700000000004
   264   1      33.784290963265917      15.165786344858242      3.0874199999999998
   265   1      28.714461028651495      7.8232740257614974      11.292730000000001
   266   1      28.714461028651495      7.8232740257614974      7.1900700000000004
   267   1      28.714461028651495      7.8232740257614974      3.0874199999999998
   268   1      26.791422087935679      11.319708463426615      11.292730000000001
   269   1      37.193217280023546      3.4537592180489307      22.492730000000002
   270   1      37.193217280023546      3.4537592180489307      18.390070000000001
   271   1      37.193217280023546      3.4537592180489307      14.287419999999999
   272   1      81.685430054147375      68.836036562483727      11.292730000000001
   273   1      23.207271866192713      11.145528569696465      14.287419999999999
   274   1      87.454546876294813      58.346733249488373      7.1900700000000004
   275   1      87.454546876294813      58.346733249488373      3.0874199999999998
   276   1         85.531507935579      61.843167687153496      11.292730000000001
   277   1         85.531507935579      61.843167687153496      7.1900700000000004
   278   1         85.531507935579      61.843167687153496      3.0874199999999998
   279   1      30.200244573108126      7.2996438938726973      22.492730000000002
   280   1      30.200244573108126      7.2996438938726973      18.390070000000001
   281   1      30.200244573108126      7.2996438938726973      14.287419999999999
   282   1      26.703756248164627      9.2225794411112894      22.492730000000002
   283   1      26.703756248164627      9.2225794411112894      18.390070000000001
   284   1      26.703756248164627      9.2225794411112894      14.287419999999999
   285   1       33.69672895508004      5.3766947652875219      22.492730000000002
   286   1       33.69672895508004      5.3766947652875219      18.390070000000001
   287   1       33.69672895508004      5.3766947652875219      14.287419999999999
   288   1      83.608468994863188      65.339602124818612      11.292730000000001
   289   1      19.710783541249214      13.068464116935058      22.492730000000002
   290   1      19.710783541249214      13.068464116935058      18.390070000000001
   291   1      19.710783541249214      13.068464116935058      14.287419999999999
   292   1       89.37758581701064      54.850298811823258      11.292730000000001
   293   1       89.37758581701064      54.850298811823258      7.1900700000000004
   294   1       89.37758581701064      54.850298811823258      3.0874199999999998
   295   1      87.454546876294813      58.346733249488373      11.292730000000001
   296   1      30.637499969367308      4.3268395880963784      11.292730000000001
   297   1      30.637499969367308      4.3268395880963784      7.1900700000000004
   298   1      30.637499969367308      4.3268395880963784      3.0874199999999998
   299   1      31.861256841737596      18.662212020364276      11.292730000000001
   300   1      31.861256841737596      18.662212020364276      7.1900700000000004
   301   1      31.861256841737596      18.662212020364276      3.0874199999999998
   302   1      29.938217901021783      22.158646458029395      11.292730000000001
   303   1      23.207271866192713      11.145528569696465      22.492730000000002
   304   1      23.207271866192713      11.145528569696465      18.390070000000001
   305   1      16.214290397118212      14.991408426332734      18.390070000000001
   306   1      16.214290397118212      14.991408426332734      14.287419999999999
   307   1      12.717810834333795      16.914348792758823      22.492730000000002
   308   1      12.717810834333795      16.914348792758823      18.390070000000001
   309   1      12.717810834333795      16.914348792758823      14.287419999999999
   310   1      32.560538910083125     0.83040515043125984      11.292730000000001
   311   1      32.560538910083125     0.83040515043125984      7.1900700000000004
   312   1      32.560538910083125     0.83040515043125984      3.0874199999999998
   313   1      29.938217901021783      22.158646458029395      7.1900700000000004
   314   1      29.938217901021783      22.158646458029395      3.0874199999999998
   315   1      28.015178960305967      25.655080895694514      11.292730000000001
   316   1      28.015178960305967      25.655080895694514      7.1900700000000004
   317   1      28.015178960305967      25.655080895694514      3.0874199999999998
   318   1      2.1415641215840919      47.857439574868017      3.0874199999999998
   319   1      0.2185300000557753      51.353865250374049      11.292730000000001
   320   1      0.2185300000557753      51.353865250374049      7.1900700000000004
   321   1      2.1415641215840919      47.857439574868017      7.1900700000000004
   322   1      5.7248381274183799      20.760233468582591      22.492730000000002
   323   1      5.7248381274183799      20.760233468582591      18.390070000000001
   324   1      5.7248381274183799      20.760233468582591      14.287419999999999
   325   1       70.49683985361898      80.898735372428391      7.1900700000000004
   326   1       70.49683985361898      80.898735372428391      3.0874199999999998
   327   1      68.573800912903167      84.395169810093506      11.292730000000001
   328   1      68.573800912903167      84.395169810093506      7.1900700000000004
   329   1      68.573800912903167      84.395169810093506      3.0874199999999998
   330   1      9.2213176902027971      18.837293102156504      22.492730000000002
   331   1      9.2213176902027971      18.837293102156504      18.390070000000001
   332   1      9.2213176902027971      18.837293102156504      14.287419999999999
   333   1      66.650766791374849      87.891595485599538      11.292730000000001
   334   1      66.650766791374849      87.891595485599538      7.1900700000000004
   335   1      66.650766791374849      87.891595485599538      3.0874199999999998
   336   1      16.214290397118212      14.991408426332734      22.492730000000002
   337   1      49.605618678308552       1.181418557770987      14.287419999999999
   338   1      72.419878794334792      77.402300934763275      11.292730000000001
   339   1      72.419878794334792      77.402300934763275      7.1900700000000004
   340   1      72.419878794334792      77.402300934763275      3.0874199999999998
   341   1       70.49683985361898      80.898735372428391      11.292730000000001
   342   1      2.2283449832873794      22.683177777980273      22.492730000000002
   343   1      2.2283449832873794      22.683177777980273      18.390070000000001
   344   1      2.2283449832873794      22.683177777980273      14.287419999999999
   345   1      0.2185300000557753      51.353865250374049      3.0874199999999998
   346   1      26.092140019590151      29.151515333359633      11.292730000000001
   347   1      26.092140019590151      29.151515333359633      7.1900700000000004
   348   1      26.092140019590151      29.151515333359633      3.0874199999999998
   349   1      4.0646030622999083      44.361005137202895      11.292730000000001
   350   1      4.0646030622999083      44.361005137202895      7.1900700000000004
   351   1      4.0646030622999083      44.361005137202895      3.0874199999999998
   352   1      2.1415641215840919      47.857439574868017      11.292730000000001
   353   1      46.109134296336642       3.104367686356162      18.390070000000001
   354   1      46.109134296336642       3.104367686356162      14.287419999999999
   355   1      74.342917735050619       73.90586649709816      11.292730000000001
   356   1      74.342917735050619       73.90586649709816      7.1900700000000004
   357   1      74.342917735050619       73.90586649709816      3.0874199999999998