(written by ASE)

10200 atoms
3 atom types

0.0      82.263772476769603  xlo xhi
0.0      82.263772476769603  ylo yhi
0.0                      50  zlo zhi

Masses

     1       137.3269999646734 # Ba
     2      15.998999995884349 # O
     3      47.866999987686484 # Ti

Atoms # atomic

     1   1      34.986299430151114       9.145798682843834      11.292730000000001
     2   1      34.986299430151114       9.145798682843834      7.1900700000000004
     3   1      34.986299430151114       9.145798682843834      3.0874199999999998
     4   1      32.469995230826662      12.242788466627777      11.292730000000001
     5   1      32.469995230826662      12.242788466627777      7.1900700000000004
     6   1      2.3713100967514835      4.5002160227754029      18.390070000000001
     7   1      2.3713100967514835      4.5002160227754029      14.287419999999999
     8   1       5.468200440929162      1.9837895854959307      22.492730000000002
     9   1       5.468200440929162      1.9837895854959307      18.390070000000001
    10   1       5.468200440929162      1.9837895854959307      14.287419999999999
    11   1      78.731270909745561      75.537496799719619      11.292730000000001
    12   1      78.731270909745561      75.537496799719619      7.1900700000000004
    13   1      78.731270909745561      75.537496799719619      3.0874199999999998
    14   1      30.246590634291085       64.11614399531615      18.390070000000001
    15   1      30.246590634291085       64.11614399531615      14.287419999999999
    16   1      27.149700290113405      66.632570432595614      22.492730000000002
    17   1      14.178407566563992     0.04782705511466441      22.492730000000002
    18   1      14.178407566563992     0.04782705511466441      18.390070000000001
    19   1      14.178407566563992     0.04782705511466441      14.287419999999999
    20   1      70.601672727312717      79.215172167963047      11.292730000000001
    21   1      70.601672727312717      79.215172167963047      7.1900700000000004
    22   1      70.601672727312717      79.215172167963047      3.0874199999999998
    23   1      81.247575109070013      72.440507015935665      11.292730000000001
    24   1      81.247575109070013      72.440507015935665      7.1900700000000004
    25   1      81.247575109070013      72.440507015935665      3.0874199999999998
    26   1      2.3713100967514835      4.5002160227754029      22.492730000000002
    27   1      81.828260693529515      78.053800999044071      11.292730000000001
    28   1      81.828260693529515      78.053800999044071      7.1900700000000004
    29   1      81.828260693529515      78.053800999044071      3.0874199999999998
    30   1      79.311956494205063      81.150790782828011      11.292730000000001
    31   1      79.311956494205063      81.150790782828011      7.1900700000000004
    32   1      73.698662511096657      81.731476367287499      3.0874199999999998
    33   1      78.150585325286073      69.924202816611214      3.0874199999999998
    34   1      75.634281125961621      73.021192600395167      11.292730000000001
    35   1      75.634281125961621      73.021192600395167      7.1900700000000004
    36   1      75.634281125961621      73.021192600395167      3.0874199999999998
    37   1      7.9846268782086343      5.0806799296736092      22.492730000000002
    38   1      7.9846268782086343      5.0806799296736092      18.390070000000001
    39   1      7.9846268782086343      5.0806799296736092      14.287419999999999
    40   1      1.6936655603999715      43.793364127786703      11.292730000000001
    41   1      1.6936655603999715      43.793364127786703      7.1900700000000004
    42   1      1.6936655603999715      43.793364127786703      3.0874199999999998
    43   1      27.437386832177751      18.436768034195666      11.292730000000001
    44   1      27.437386832177751      18.436768034195666      7.1900700000000004
    45   1      27.437386832177751      18.436768034195666      3.0874199999999998
    46   1      4.2099697597244266      40.696374344002756      11.292730000000001
    47   1      4.2099697597244266      40.696374344002756      7.1900700000000004
    48   1      4.2099697597244266      40.696374344002756      3.0874199999999998
    49   1      4.8877365340309566      7.5971063669530823      18.390070000000001
    50   1      4.8877365340309566      7.5971063669530823      14.287419999999999
    51   1      24.921088938779548      21.533750056839608      11.292730000000001
    52   1      24.921088938779548      21.533750056839608      7.1900700000000004
    53   1      24.921088938779548      21.533750056839608      3.0874199999999998
    54   1      22.404784739455096      24.630739840623551      11.292730000000001
    55   1      22.404784739455096      24.630739840623551      7.1900700000000004
    56   1       9.242578158373334      34.502394776434869      7.1900700000000004
    57   1       9.242578158373334      34.502394776434869      3.0874199999999998
    58   1       6.726273959048882      37.599384560218816      11.292730000000001
    59   1       6.726273959048882      37.599384560218816      7.1900700000000004
    60   1       6.726273959048882      37.599384560218816      3.0874199999999998
    61   1      1.7908461898532779      10.113532804232555      22.492730000000002
    62   1      1.7908461898532779      10.113532804232555      18.390070000000001
    63   1      1.7908461898532779      10.113532804232555      14.287419999999999
    64   1      78.150585325286073      69.924202816611214      7.1900700000000004
    65   1      13.597943659665786      5.6611438365718154      14.287419999999999
    66   1      16.694834003843464      3.1447173992923427      22.492730000000002
    67   1      16.694834003843464      3.1447173992923427      18.390070000000001
    68   1      16.694834003843464      3.1447173992923427      14.287419999999999
    69   1      67.504682943528763      76.698867968638595      3.0874199999999998
    70   1      64.988378744204311      79.795857752422535      11.292730000000001
    71   1      64.988378744204311      79.795857752422535      7.1900700000000004
    72   1      64.988378744204311      79.795857752422535      3.0874199999999998
    73   1      19.791724348021141      0.6282909620128706      22.492730000000002
    74   1      19.791724348021141      0.6282909620128706      18.390070000000001
    75   1      19.791724348021141      0.6282909620128706      14.287419999999999
    76   1      80.666889524610539      66.827213032827274      11.292730000000001
    77   1      80.666889524610539      66.827213032827274      7.1900700000000004
    78   1      80.666889524610539      66.827213032827274      3.0874199999999998
    79   1      78.150585325286073      69.924202816611214      11.292730000000001
    80   1      4.8877365340309566      7.5971063669530823      22.492730000000002
    81   1      7.4041629713104298       10.69399671113076      14.287419999999999
    82   1      70.020987142853215      73.601878184854655      11.292730000000001
    83   1      70.020987142853215      73.601878184854655      7.1900700000000004
    84   1      70.020987142853215      73.601878184854655      3.0874199999999998
    85   1      67.504682943528763      76.698867968638595      11.292730000000001
    86   1      67.504682943528763      76.698867968638595      7.1900700000000004
    87   1      11.758882357697789      31.405404992650926      11.292730000000001
    88   1      11.758882357697789      31.405404992650926      7.1900700000000004
    89   1      11.758882357697789      31.405404992650926      3.0874199999999998
    90   1       9.242578158373334      34.502394776434869      11.292730000000001
    91   1      22.404784739455096      24.630739840623551      3.0874199999999998
    92   1       19.88848054013064      27.727729624407495      11.292730000000001
    93   1       19.88848054013064      27.727729624407495      7.1900700000000004
    94   1       19.88848054013064      27.727729624407495      3.0874199999999998
    95   1      13.597943659665786      5.6611438365718154      22.492730000000002
    96   1      13.597943659665786      5.6611438365718154      18.390070000000001
    97   1      10.501053315488107      8.1775702738512877      22.492730000000002
    98   1      10.501053315488107      8.1775702738512877      18.390070000000001
    99   1      10.501053315488107      8.1775702738512877      14.287419999999999
   100   1      14.275186557022243      28.308415208866982      11.292730000000001
   101   1      14.275186557022243      28.308415208866982      7.1900700000000004
   102   1      14.275186557022243      28.308415208866982      3.0874199999999998
   103   1      17.372176340806185      30.824719408191438      11.292730000000001
   104   1      17.372176340806185      30.824719408191438      7.1900700000000004
   105   1      17.372176340806185      30.824719408191438      3.0874199999999998
   106   1      19.307794955671152      22.114435641299096      7.1900700000000004
   107   1      19.307794955671152      22.114435641299096      3.0874199999999998
   108   1      16.791490756346697      25.211425425083039      11.292730000000001
   109   1      16.791490756346697      25.211425425083039      7.1900700000000004
   110   1      16.791490756346697      25.211425425083039      3.0874199999999998
   111   1      7.4041629713104298       10.69399671113076      22.492730000000002
   112   1      7.4041629713104298       10.69399671113076      18.390070000000001
   113   1      25.405033368338295       1.208748562984824      22.492730000000002
   114   1      25.405033368338295       1.208748562984824      18.390070000000001
   115   1      25.405033368338295       1.208748562984824      14.287419999999999
   116   1      77.569899740826585      64.310908833502822      3.0874199999999998
   117   1      75.053595541502119      67.407898617286762      11.292730000000001
   118   1      75.053595541502119      67.407898617286762      7.1900700000000004
   119   1      75.053595541502119      67.407898617286762      3.0874199999999998
   120   1      1.2103822829550719      15.726849585689704      22.492730000000002
   121   1      1.2103822829550719      15.726849585689704      18.390070000000001
   122   1      1.2103822829550719      15.726849585689704      14.287419999999999
   123   1      4.3072726271327504      13.210423148410234      22.492730000000002
   124   1      4.3072726271327504      13.210423148410234      18.390070000000001
   125   1      4.3072726271327504      13.210423148410234      14.287419999999999
   126   1      72.537291342177667      70.504888401070701      11.292730000000001
   127   1      72.537291342177667      70.504888401070701      7.1900700000000004
   128   1      72.537291342177667      70.504888401070701      3.0874199999999998
   129   1      77.569899740826585      64.310908833502822      11.292730000000001
   130   1      77.569899740826585      64.310908833502822      7.1900700000000004
   131   1      22.308143024160614      3.7251750002642972      22.492730000000002
   132   1      22.308143024160614      3.7251750002642972      18.390070000000001
   133   1      22.308143024160614      3.7251750002642972      14.287419999999999
   134   1      19.211260441122935      6.2416077434700208      22.492730000000002
   135   1      19.211260441122935      6.2416077434700208      18.390070000000001
   136   1      14.855872141481733      33.921709191975381      11.292730000000001
   137   1      14.855872141481733      33.921709191975381      7.1900700000000004
   138   1      14.855872141481733      33.921709191975381      3.0874199999999998
   139   1      12.339567942157277      37.018698975759328      11.292730000000001
   140   1      12.339567942157277      37.018698975759328      7.1900700000000004
   141   1      21.824099154995604      19.017445857515153      11.292730000000001
   142   1      21.824099154995604      19.017445857515153      7.1900700000000004
   143   1      21.824099154995604      19.017445857515153      3.0874199999999998
   144   1      19.307794955671152      22.114435641299096      11.292730000000001
   145   1      59.375084761095913      80.376543336882023      11.292730000000001
   146   1      59.375084761095913      80.376543336882023      7.1900700000000004
   147   1      59.375084761095913      80.376543336882023      3.0874199999999998
   148   1      24.340397048393807      15.920463834871208      11.292730000000001
   149   1      24.340397048393807      15.920463834871208      7.1900700000000004
   150   1      24.340397048393807      15.920463834871208      3.0874199999999998
   151   1      12.339567942157277      37.018698975759328      3.0874199999999998
   152   1      9.8232637428328253      40.115688759543268      11.292730000000001
   153   1      9.8232637428328253      40.115688759543268      7.1900700000000004
   154   1      9.8232637428328253      40.115688759543268      3.0874199999999998
   155   1      29.373005447042715      9.7264842673033218      7.1900700000000004
   156   1      29.373005447042715      9.7264842673033218      3.0874199999999998
   157   1      26.856701247718263      12.823474051087265      11.292730000000001
   158   1      80.086197634224789      61.213926810858872      11.292730000000001
   159   1      80.086197634224789      61.213926810858872      7.1900700000000004
   160   1      80.086197634224789      61.213926810858872      3.0874199999999998
   161   1      64.407693159744824      74.182563769314143      3.0874199999999998
   162   1      61.891388960420372      77.279553553098083      11.292730000000001
   163   1      61.891388960420372      77.279553553098083      7.1900700000000004
   164   1      61.891388960420372      77.279553553098083      3.0874199999999998
   165   1      9.9205894085898993      13.790887055308438      22.492730000000002
   166   1      9.9205894085898993      13.790887055308438      18.390070000000001
   167   1      9.9205894085898993      13.790887055308438      14.287419999999999
   168   1      6.8236990644122226      16.307313492587912      22.492730000000002
   169   1      6.8236990644122226      16.307313492587912      18.390070000000001
   170   1      13.017479752767581      11.274460618028966      22.492730000000002
   171   1      13.017479752767581      11.274460618028966      18.390070000000001
   172   1      13.017479752767581      11.274460618028966      14.287419999999999
   173   1      19.211260441122935      6.2416077434700208      14.287419999999999
   174   1      16.114370096945258      8.7580341807494939      22.492730000000002
   175   1      16.114370096945258      8.7580341807494939      18.390070000000001
   176   1      16.114370096945258      8.7580341807494939      14.287419999999999
   177   1      3.7268150261607951      18.823732168727382      18.390070000000001
   178   1      3.7268150261607951      18.823732168727382      14.287419999999999
   179   1      66.923997359069276      71.085573985530203      11.292730000000001
   180   1      66.923997359069276      71.085573985530203      7.1900700000000004
   181   1      66.923997359069276      71.085573985530203      3.0874199999999998
   182   1      64.407693159744824      74.182563769314143      11.292730000000001
   183   1      26.856701247718263      12.823474051087265      7.1900700000000004
   184   1      26.856701247718263      12.823474051087265      3.0874199999999998
   185   1      7.3069595435083698      43.212678543327215      11.292730000000001
   186   1      7.3069595435083698      43.212678543327215      7.1900700000000004
   187   1      7.3069595435083698      43.212678543327215      3.0874199999999998
   188   1       31.88930964636717      6.6294944835193785      11.292730000000001
   189   1       31.88930964636717      6.6294944835193785      7.1900700000000004
   190   1       31.88930964636717      6.6294944835193785      3.0874199999999998
   191   1      29.373005447042715      9.7264842673033218      11.292730000000001
   192   1      64.407693159744824      74.182563769314143      7.1900700000000004
   193   1      69.440301558393728      67.988584201746249      11.292730000000001
   194   1      69.440301558393728      67.988584201746249      7.1900700000000004
   195   1      69.440301558393728      67.988584201746249      3.0874199999999998
   196   1     0.62993244312311836      21.340164911933105      22.492730000000002
   197   1     0.62993244312311836      21.340164911933105      18.390070000000001
   198   1     0.62993244312311836      21.340164911933105      14.287419999999999
   199   1      34.405613845691626      3.5325046997354348      11.292730000000001
   200   1      34.405613845691626      3.5325046997354348      7.1900700000000004
   201   1      34.405613845691626      3.5325046997354348      3.0874199999999998
   202   1      4.7906553441839153      46.309668327111162      11.292730000000001
   203   1      4.7906553441839153      46.309668327111162      7.1900700000000004
   204   1      4.7906553441839153      46.309668327111162      3.0874199999999998
   205   1      2.2743511448594642      49.406658110895094      11.292730000000001
   206   1      2.2743511448594642      49.406658110895094      7.1900700000000004
   207   1      6.8236990644122226      16.307313492587912      14.287419999999999
   208   1      3.7268150261607951      18.823732168727382      22.492730000000002
   209   1      71.956605757718179       64.89159441796231      7.1900700000000004
   210   1      71.956605757718179       64.89159441796231      3.0874199999999998
   211   1      27.921459805617765      4.3056389071625025      22.492730000000002
   212   1      27.921459805617765      4.3056389071625025      18.390070000000001
   213   1      27.921459805617765      4.3056389071625025      14.287419999999999
   214   1      36.921918045016078     0.43551491595148978      11.292730000000001
   215   1      36.921918045016078     0.43551491595148978      7.1900700000000004
   216   1      36.921918045016078     0.43551491595148978      3.0874199999999998
   217   1      3.6292841752649347      35.083080360894357      3.0874199999999998
   218   1      1.1129799759404799      38.180070144678304      11.292730000000001
   219   1      1.1129799759404799      38.180070144678304      7.1900700000000004
   220   1      1.1129799759404799      38.180070144678304      3.0874199999999998
   221   1      2.2743511448594642      49.406658110895094      3.0874199999999998
   222   1      31.018350149795442      1.7892124698830325      22.492730000000002
   223   1      31.018350149795442      1.7892124698830325      18.390070000000001
   224   1      31.018350149795442      1.7892124698830325      14.287419999999999
   225   1      18.630796534224732      11.854924524927172      22.492730000000002
   226   1      18.630796534224732      11.854924524927172      18.390070000000001
   227   1      18.630796534224732      11.854924524927172      14.287419999999999
   228   1      76.989207850440849       58.69762261153442      11.292730000000001
   229   1      76.989207850440849       58.69762261153442      7.1900700000000004
   230   1      76.989207850440849       58.69762261153442      3.0874199999999998
   231   1      24.824569461440085      6.8220653444419757      22.492730000000002
   232   1      24.824569461440085      6.8220653444419757      18.390070000000001
   233   1      24.824569461440085      6.8220653444419757      14.287419999999999
   234   1      21.727686878402409      9.3384980876477002      22.492730000000002
   235   1      21.727686878402409      9.3384980876477002      18.390070000000001
   236   1      21.727686878402409      9.3384980876477002      14.287419999999999
   237   1      74.472909957042646      61.794604634178363      11.292730000000001
   238   1      74.472909957042646      61.794604634178363      7.1900700000000004
   239   1      74.472909957042646      61.794604634178363      3.0874199999999998
   240   1      71.956605757718179       64.89159441796231      11.292730000000001
   241   1      9.3401318076179471      19.404196075625588      14.287419999999999
   242   1      15.533912495973304      14.371343201066644      22.492730000000002
   243   1      15.533912495973304      14.371343201066644      18.390070000000001
   244   1      15.533912495973304      14.371343201066644      14.287419999999999
   245   1      79.505512049765301      55.600632827750481      11.292730000000001
   246   1      79.505512049765301      55.600632827750481      7.1900700000000004
   247   1      79.505512049765301      55.600632827750481      3.0874199999999998
   248   1       6.145588374589388      31.986090577110414      11.292730000000001
   249   1       6.145588374589388      31.986090577110414      7.1900700000000004
   250   1       6.145588374589388      31.986090577110414      3.0874199999999998
   251   1      3.6292841752649347      35.083080360894357      11.292730000000001
   252   1      3.6292841752649347      35.083080360894357      7.1900700000000004
   253   1      45.632201811908416      2.3711335308164512      11.292730000000001
   254   1      45.632201811908416      2.3711335308164512      7.1900700000000004
   255   1      45.632201811908416      2.3711335308164512      3.0874199999999998
   256   1      8.6618925739138426       28.88910079332647      11.292730000000001
   257   1      82.021816249089753      52.503643043966534      3.0874199999999998
   258   1      12.437022151795626      16.887769638346118      22.492730000000002
   259   1      12.437022151795626      16.887769638346118      18.390070000000001
   260   1      12.437022151795626      16.887769638346118      14.287419999999999
   261   1      8.6618925739138426       28.88910079332647      7.1900700000000004
   262   1      8.6618925739138426       28.88910079332647      3.0874199999999998
   263   1       13.69450097256275      22.695121225758584      3.0874199999999998
   264   1      11.178196773238296      25.792111009542527      11.292730000000001
   265   1      11.178196773238296      25.792111009542527      7.1900700000000004
   266   1      11.178196773238296      25.792111009542527      3.0874199999999998
   267   1      43.115897612583964       5.468123314600394      11.292730000000001
   268   1      43.115897612583964       5.468123314600394      7.1900700000000004
   269   1      43.115897612583964       5.468123314600394      3.0874199999999998
   270   1      40.599593413259505      8.5651130983843391      11.292730000000001
   271   1      9.3401318076179471      19.404196075625588      22.492730000000002
   272   1      9.3401318076179471      19.404196075625588      18.390070000000001
   273   1    0.049468536224913207      26.953481693390259      18.390070000000001
   274   1    0.049468536224913207      26.953481693390259      14.287419999999999
   275   1      58.794399176636432      74.763249353773631      11.292730000000001
   276   1      58.794399176636432      74.763249353773631      7.1900700000000004
   277   1      58.794399176636432      74.763249353773631      3.0874199999999998
   278   1      6.2432414634402678      21.920622512905062      22.492730000000002
   279   1      6.2432414634402678      21.920622512905062      18.390070000000001
   280   1      6.2432414634402678      21.920622512905062      14.287419999999999
   281   1      56.278094977311973      77.860239137557571      11.292730000000001
   282   1      56.278094977311973      77.860239137557571      7.1900700000000004
   283   1      56.278094977311973      77.860239137557571      3.0874199999999998
   284   1      53.761790777987521       80.95722892134151      11.292730000000001
   285   1      53.761790777987521       80.95722892134151      7.1900700000000004
   286   1      53.761790777987521       80.95722892134151      3.0874199999999998
   287   1      82.021816249089753      52.503643043966534      11.292730000000001
   288   1      82.021816249089753      52.503643043966534      7.1900700000000004
   289   1      61.310703375960884      71.666259569989677      11.292730000000001
   290   1      61.310703375960884      71.666259569989677      7.1900700000000004
   291   1      61.310703375960884      71.666259569989677      3.0874199999999998
   292   1      3.1463511192625888      24.437048950184533      22.492730000000002
   293   1      40.599593413259505      8.5651130983843391      7.1900700000000004
   294   1      40.599593413259505      8.5651130983843391      3.0874199999999998
   295   1      38.083289213935053      11.662102882168282      11.292730000000001
   296   1      38.083289213935053      11.662102882168282      7.1900700000000004
   297   1      16.210805171887205       19.59813144197464      11.292730000000001
   298   1      16.210805171887205       19.59813144197464      7.1900700000000004
   299   1      16.210805171887205       19.59813144197464      3.0874199999999998
   300   1       13.69450097256275      22.695121225758584      11.292730000000001
   301   1       13.69450097256275      22.695121225758584      7.1900700000000004
   302   1      3.1463511192625888      24.437048950184533      18.390070000000001
   303   1      3.1463511192625888      24.437048950184533      14.287419999999999
   304   1    0.049468536224913207      26.953481693390259      22.492730000000002
   305   1      36.631666931252596      2.3696763767812383      22.492730000000002
   306   1      36.631666931252596      2.3696763767812383      18.390070000000001
   307   1      36.631666931252596      2.3696763767812383      14.287419999999999
   308   1      18.727109371211657      16.501141658190697      11.292730000000001
   309   1      18.727109371211657      16.501141658190697      7.1900700000000004
   310   1      18.727109371211657      16.501141658190697      3.0874199999999998
   311   1      38.083289213935053      11.662102882168282      3.0874199999999998
   312   1      35.566985014610601      14.759092665952226      11.292730000000001
   313   1      35.566985014610601      14.759092665952226      7.1900700000000004
   314   1      35.566985014610601      14.759092665952226      3.0874199999999998
   315   1      23.759711463934316       10.30716985176281      3.0874199999999998
   316   1      21.243407264609861      13.404159635546753      11.292730000000001
   317   1      21.243407264609861      13.404159635546753      7.1900700000000004
   318   1      21.243407264609861      13.404159635546753      3.0874199999999998
   319   1      63.827007575285336      68.569269786205737      7.1900700000000004
   320   1      63.827007575285336      68.569269786205737      3.0874199999999998
   321   1      27.340995898719562      9.9189556886196542      22.492730000000002
   322   1      27.340995898719562      9.9189556886196542      18.390070000000001
   323   1      27.340995898719562      9.9189556886196542      14.287419999999999
   324   1       68.85961597393424      62.375290218637851      11.292730000000001
   325   1       68.85961597393424      62.375290218637851      7.1900700000000004
   326   1       68.85961597393424      62.375290218637851      3.0874199999999998
   327   1      33.534776587074916      4.8861028140607088      22.492730000000002
   328   1      33.534776587074916      4.8861028140607088      18.390070000000001
   329   1      33.534776587074916      4.8861028140607088      14.287419999999999
   330   1      30.437886242897239      7.4025292513401837      22.492730000000002
   331   1      30.437886242897239      7.4025292513401837      18.390070000000001
   332   1      30.437886242897239      7.4025292513401837      14.287419999999999
   333   1      66.343311774609788      65.472280002421797      11.292730000000001
   334   1      66.343311774609788      65.472280002421797      7.1900700000000004
   335   1      66.343311774609788      65.472280002421797      3.0874199999999998
   336   1      63.827007575285336      68.569269786205737      11.292730000000001
   337   1      73.892218066656909      56.181318412209961      7.1900700000000004
   338   1      73.892218066656909      56.181318412209961      3.0874199999999998
   339   1      71.375920173258706      59.278300434853904      11.292730000000001
   340   1      71.375920173258706      59.278300434853904      7.1900700000000004
   341   1      71.375920173258706      59.278300434853904      3.0874199999999998
   342   1      24.244119621608135      12.435380670685378      22.492730000000002
   343   1      24.244119621608135      12.435380670685378      18.390070000000001
   344   1      24.244119621608135      12.435380670685378      14.287419999999999
   345   1      26.276015663258768      7.2101800679788663      11.292730000000001
   346   1      26.276015663258768      7.2101800679788663      7.1900700000000004
   347   1      26.276015663258768      7.2101800679788663      3.0874199999999998
   348   1      23.759711463934316       10.30716985176281      11.292730000000001
   349   1      23.759711463934316       10.30716985176281      7.1900700000000004
   350   1      33.050680815286142      17.856082449736171      11.292730000000001
   351   1      33.050680815286142      17.856082449736171      7.1900700000000004
   352   1      33.050680815286142      17.856082449736171      3.0874199999999998
   353   1      73.892218066656909      56.181318412209961      11.292730000000001
   354   1      21.147229277430455      14.951807107964848      22.492730000000002
   355   1      21.147229277430455      14.951807107964848      18.390070000000001
   356   1      21.147229277430455      14.951807107964848      14.287419999999999
   357   1      28.792319862583224      4.1131902841949231      11.292730000000001