(written by ASE)

6360 atoms
3 atom types

0.0      64.958665399559592  xlo xhi
0.0      64.958665399559592  ylo yhi
0.0                      50  zlo zhi

Masses

     1       137.3269999646734 # Ba
     2      15.998999995884349 # O
     3      47.866999987686484 # Ti

Atoms # atomic

     1   1      62.200988334658724        63.4266182801586      3.0874199999999998
     2   1      62.936369619152288      59.504584762859622      11.292730000000001
     3   1      62.936369619152288      59.504584762859622      7.1900700000000004
     4   1      62.936369619152288      59.504584762859622      3.0874199999999998
     5   1       63.67174906076049      55.582561074282516      11.292730000000001
     6   1       63.67174906076049      55.582561074282516      7.1900700000000004
     7   1       63.67174906076049      55.582561074282516      3.0874199999999998
     8   1       29.84421980277866      41.120064322127874      11.292730000000001
     9   1       29.84421980277866      41.120064322127874      7.1900700000000004
    10   1       29.84421980277866      41.120064322127874      3.0874199999999998
    11   1       30.57960108727222      37.198030804828896      11.292730000000001
    12   1       30.57960108727222      37.198030804828896      7.1900700000000004
    13   1       30.57960108727222      37.198030804828896      3.0874199999999998
    14   1      29.108838518285104      45.042097839426852      11.292730000000001
    15   1      29.108838518285104      45.042097839426852      7.1900700000000004
    16   1      29.108838518285104      45.042097839426852      3.0874199999999998
    17   1      3.9840232661289261       59.13685480572537      18.390070000000001
    18   1      3.9840232661289261       59.13685480572537      14.287419999999999
    19   1      4.7194567657074158      63.058872351351312      22.492730000000002
    20   1      4.7194567657074158      63.058872351351312      18.390070000000001
    21   1      4.7194567657074158      63.058872351351312      14.287419999999999
    22   1    0.061997734666465416      59.872276633696636      14.287419999999999
    23   1      64.162003250422856      31.314978685995079      11.292730000000001
    24   1      64.162003250422856      31.314978685995079      7.1900700000000004
    25   1      64.162003250422856      31.314978685995079      3.0874199999999998
    26   1      64.897384534916412      27.392945168696102      11.292730000000001
    27   1      64.897384534916412      27.392945168696102      7.1900700000000004
    28   1      64.897384534916412      27.392945168696102      3.0874199999999998
    29   1      62.200988334658724        63.4266182801586      11.292730000000001
    30   1      64.407130345254046      51.660527556983531      11.292730000000001
    31   1      64.407130345254046      51.660527556983531      7.1900700000000004
    32   1      62.200988334658724        63.4266182801586      7.1900700000000004
    33   1       7.170618983783597       54.47939577468442      18.390070000000001
    34   1      8.6414724684480078      62.323448680494685      22.492730000000002
    35   1      8.6414724684480078      62.323448680494685      18.390070000000001
    36   1      8.6414724684480078      62.323448680494685      14.287419999999999
    37   1     0.30688279722161999      39.526731448478884      22.492730000000002
    38   1     0.30688279722161999      39.526731448478884      18.390070000000001
    39   1     0.30688279722161999      39.526731448478884      14.287419999999999
    40   1      61.220478112448625       47.00311275519099      11.292730000000001
    41   1      61.220478112448625       47.00311275519099      7.1900700000000004
    42   1      61.220478112448625       47.00311275519099      3.0874199999999998
    43   1      61.955859396942188      43.081079237892013      11.292730000000001
    44   1      1.0423144539147591       43.44875882282669      22.492730000000002
    45   1      1.0423144539147591       43.44875882282669      18.390070000000001
    46   1      1.0423144539147591       43.44875882282669      14.287419999999999
    47   1      2.5131697814645175      51.292801899915098      22.492730000000002
    48   1      2.5131697814645175      51.292801899915098      18.390070000000001
    49   1      4.2289101715694324       38.79129979178574      22.492730000000002
    50   1      4.2289101715694324       38.79129979178574      18.390070000000001
    51   1      5.6997636562338405      46.635352697596012      22.492730000000002
    52   1      5.6997636562338405      46.635352697596012      18.390070000000001
    53   1      5.6997636562338405      46.635352697596012      14.287419999999999
    54   1       7.170618983783597       54.47939577468442      14.287419999999999
    55   1      6.4351971558123306      50.557370243221953      22.492730000000002
    56   1      6.4351971558123306      50.557370243221953      18.390070000000001
    57   1      6.4351971558123306      50.557370243221953      14.287419999999999
    58   1      60.485096827955068      50.925146272489975      11.292730000000001
    59   1      60.485096827955068      50.925146272489975      7.1900700000000004
    60   1      60.485096827955068      50.925146272489975      3.0874199999999998
    61   1      7.9060506404767352      58.401423149032226      22.492730000000002
    62   1      7.9060506404767352      58.401423149032226      18.390070000000001
    63   1      7.9060506404767352      58.401423149032226      14.287419999999999
    64   1       7.170618983783597       54.47939577468442      22.492730000000002
    65   1       1.287189687748044      23.103211794723585      18.390070000000001
    66   1      2.7580548440196715      30.947256714697339      22.492730000000002
    67   1      2.7580548440196715      30.947256714697339      18.390070000000001
    68   1      2.7580548440196715      30.947256714697339      14.287419999999999
    69   1      4.2289101715694324       38.79129979178574      14.287419999999999
    70   1      3.4934766719909423      34.869282246159798      22.492730000000002
    71   1      3.4934766719909423      34.869282246159798      18.390070000000001
    72   1      3.4934766719909423      34.869282246159798      14.287419999999999
    73   1      59.014336101853303      58.769203478366066      7.1900700000000004
    74   1      59.014336101853303      58.769203478366066      3.0874199999999998
    75   1      59.749715543461505      54.847179789788953      11.292730000000001
    76   1      59.749715543461505      54.847179789788953      7.1900700000000004
    77   1      59.749715543461505      54.847179789788953      3.0874199999999998
    78   1      4.9643319995407005      42.713325323248206      22.492730000000002
    79   1      4.9643319995407005      42.713325323248206      18.390070000000001
    80   1      4.9643319995407005      42.713325323248206      14.287419999999999
    81   1      11.828078014824547      57.665991492339089      14.287419999999999
    82   1      12.563499842795819      61.588017023801548      22.492730000000002
    83   1      12.563499842795819      61.588017023801548      18.390070000000001
    84   1      12.563499842795819      61.588017023801548      14.287419999999999
    85   1       1.287189687748044      23.103211794723585      14.287419999999999
    86   1     0.55176785977677389      19.181186263261125      22.492730000000002
    87   1     0.55176785977677389      19.181186263261125      18.390070000000001
    88   1     0.55176785977677389      19.181186263261125      14.287419999999999
    89   1       58.27895481735974      62.691236995665044      11.292730000000001
    90   1       58.27895481735974      62.691236995665044      7.1900700000000004
    91   1       58.27895481735974      62.691236995665044      3.0874199999999998
    92   1      59.014336101853303      58.769203478366066      11.292730000000001
    93   1      2.0226231873265328      27.025229340349526      22.492730000000002
    94   1      2.0226231873265328      27.025229340349526      18.390070000000001
    95   1      2.0226231873265328      27.025229340349526      14.287419999999999
    96   1       1.287189687748044      23.103211794723585      22.492730000000002
    97   1      10.357212858552918      49.821946572365334      18.390070000000001
    98   1      10.357212858552918      49.821946572365334      14.287419999999999
    99   1      9.6217910305816527      45.899921040902875      22.492730000000002
   100   1      9.6217910305816527      45.899921040902875      18.390070000000001
   101   1      9.6217910305816527      45.899921040902875      14.287419999999999
   102   1      63.916874312706327      10.969439643728492      11.292730000000001
   103   1      63.916874312706327      10.969439643728492      7.1900700000000004
   104   1      63.916874312706327      10.969439643728492      3.0874199999999998
   105   1      64.652255597199883      7.0474061264295136      11.292730000000001
   106   1      64.652255597199883      7.0474061264295136      7.1900700000000004
   107   1      64.652255597199883      7.0474061264295136      3.0874199999999998
   108   1      11.092644515246059      53.743973946713147      22.492730000000002
   109   1      11.092644515246059      53.743973946713147      18.390070000000001
   110   1      11.092644515246059      53.743973946713147      14.287419999999999
   111   1      11.828078014824547      57.665991492339089      22.492730000000002
   112   1      11.828078014824547      57.665991492339089      18.390070000000001
   113   1      6.6800723896456127      30.211823215118851      22.492730000000002
   114   1      6.6800723896456127      30.211823215118851      18.390070000000001
   115   1      6.6800723896456127      30.211823215118851      14.287419999999999
   116   1       8.150935703031891      38.055877963814474      22.492730000000002
   117   1       8.150935703031891      38.055877963814474      18.390070000000001
   118   1       8.150935703031891      38.055877963814474      14.287419999999999
   119   1      62.446113586604561      18.813496849604583      11.292730000000001
   120   1      62.446113586604561      18.813496849604583      7.1900700000000004
   121   1      62.446113586604561      18.813496849604583      3.0874199999999998
   122   1      63.181494871098117      14.891463332305603      11.292730000000001
   123   1      63.181494871098117      14.891463332305603      7.1900700000000004
   124   1      63.181494871098117      14.891463332305603      3.0874199999999998
   125   1        8.88635937388851      41.977893666555069      22.492730000000002
   126   1        8.88635937388851      41.977893666555069      18.390070000000001
   127   1        8.88635937388851      41.977893666555069      14.287419999999999
   128   1      10.357212858552918      49.821946572365334      22.492730000000002
   129   1      3.7383617345460949      14.523737060942047      14.287419999999999
   130   1      5.2092170620958536      22.367780138030447      22.492730000000002
   131   1      5.2092170620958536      22.367780138030447      18.390070000000001
   132   1      5.2092170620958536      22.367780138030447      14.287419999999999
   133   1      5.9446487187889936       26.28980751237826      22.492730000000002
   134   1      5.9446487187889936       26.28980751237826      18.390070000000001
   135   1      5.9446487187889936       26.28980751237826      14.287419999999999
   136   1      60.975351017617442      26.657563884202542      11.292730000000001
   137   1      60.975351017617442      26.657563884202542      7.1900700000000004
   138   1      60.975351017617442      26.657563884202542      3.0874199999999998
   139   1      61.710732302110998      22.735530366903561      11.292730000000001
   140   1      61.710732302110998      22.735530366903561      7.1900700000000004
   141   1      61.710732302110998      22.735530366903561      3.0874199999999998
   142   1      7.4155040463387527      34.133850589466661      22.492730000000002
   143   1      7.4155040463387527      34.133850589466661      18.390070000000001
   144   1      7.4155040463387527      34.133850589466661      14.287419999999999
   145   1      17.220958873836764      64.774612741456224      18.390070000000001
   146   1      17.220958873836764      64.774612741456224      14.287419999999999
   147   1      2.2675082498816863      6.6796841551317749      22.492730000000002
   148   1      2.2675082498816863      6.6796841551317749      18.390070000000001
   149   1      2.2675082498816863      6.6796841551317749      14.287419999999999
   150   1      3.0029300778529557      10.601709686594235      22.492730000000002
   151   1      3.0029300778529557      10.601709686594235      18.390070000000001
   152   1      3.0029300778529557      10.601709686594235      14.287419999999999
   153   1      60.239969733123885       30.57959740150152      11.292730000000001
   154   1      60.239969733123885       30.57959740150152      7.1900700000000004
   155   1      60.239969733123885       30.57959740150152      3.0874199999999998
   156   1      4.4737952341245837      18.445754606567988      22.492730000000002
   157   1      4.4737952341245837      18.445754606567988      18.390070000000001
   158   1      4.4737952341245837      18.445754606567988      14.287419999999999
   159   1      3.7383617345460949      14.523737060942047      22.492730000000002
   160   1      3.7383617345460949      14.523737060942047      18.390070000000001
   161   1      14.279240232900731      49.086514915672197      22.492730000000002
   162   1      14.279240232900731      49.086514915672197      18.390070000000001
   163   1      14.279240232900731      49.086514915672197      14.287419999999999
   164   1      15.750093717565138      56.930567821482462      22.492730000000002
   165   1      15.750093717565138      56.930567821482462      18.390070000000001
   166   1      15.750093717565138      56.930567821482462      14.287419999999999
   167   1       16.48552721714363      60.852585367108404      22.492730000000002
   168   1       16.48552721714363      60.852585367108404      18.390070000000001
   169   1       16.48552721714363      60.852585367108404      14.287419999999999
   170   1      59.504588448630322      34.501630918800501      11.292730000000001
   171   1      59.504588448630322      34.501630918800501      7.1900700000000004
   172   1      59.504588448630322      34.501630918800501      3.0874199999999998
   173   1      1.5320765931885476      2.7576567807839636      22.492730000000002
   174   1      1.5320765931885476      2.7576567807839636      18.390070000000001
   175   1      1.5320765931885476      2.7576567807839636      14.287419999999999
   176   1      17.220958873836764      64.774612741456224      22.492730000000002
   177   1      11.337531420686567      33.398418932773524      14.287419999999999
   178   1      12.808384905350973      41.242471838583796      22.492730000000002
   179   1      12.808384905350973      41.242471838583796      18.390070000000001
   180   1      12.808384905350973      41.242471838583796      14.287419999999999
   181   1      13.543806733322242      45.164497370046256      22.492730000000002
   182   1      13.543806733322242      45.164497370046256      18.390070000000001
   183   1      13.543806733322242      45.164497370046256      14.287419999999999
   184   1       58.03382587964321      42.345697953398457      11.292730000000001
   185   1       58.03382587964321      42.345697953398457      7.1900700000000004
   186   1       58.03382587964321      42.345697953398457      3.0874199999999998
   187   1      58.769207164136766      38.423664436099479      11.292730000000001
   188   1      58.769207164136766      38.423664436099479      7.1900700000000004
   189   1      58.769207164136766      38.423664436099479      3.0874199999999998
   190   1       15.01467188959387       53.00854229002001      22.492730000000002
   191   1       15.01467188959387       53.00854229002001      18.390070000000001
   192   1       15.01467188959387       53.00854229002001      14.287419999999999
   193   1      8.3958109368651765      17.710330935711369      18.390070000000001
   194   1      8.3958109368651765      17.710330935711369      14.287419999999999
   195   1      9.8666662644149348      25.554374012799769      22.492730000000002
   196   1      9.8666662644149348      25.554374012799769      18.390070000000001
   197   1      9.8666662644149348      25.554374012799769      14.287419999999999
   198   1      10.602097921108074      29.476401387147583      22.492730000000002
   199   1      10.602097921108074      29.476401387147583      18.390070000000001
   200   1      10.602097921108074      29.476401387147583      14.287419999999999
   201   1      57.298444595149647      46.267731470697434      11.292730000000001
   202   1      57.298444595149647      46.267731470697434      7.1900700000000004
   203   1      57.298444595149647      46.267731470697434      3.0874199999999998
   204   1      12.072953248657832      37.320444464235983      22.492730000000002
   205   1      12.072953248657832      37.320444464235983      18.390070000000001
   206   1      12.072953248657832      37.320444464235983      14.287419999999999
   207   1      11.337531420686567      33.398418932773524      22.492730000000002
   208   1      11.337531420686567      33.398418932773524      18.390070000000001
   209   1      5.4541021246510075      2.0222349528126942      22.492730000000002
   210   1      5.4541021246510075      2.0222349528126942      18.390070000000001
   211   1      5.4541021246510075      2.0222349528126942      14.287419999999999
   212   1      6.9249574522007658      9.8662780299010944      22.492730000000002
   213   1      6.9249574522007658      9.8662780299010944      18.390070000000001
   214   1      6.9249574522007658      9.8662780299010944      14.287419999999999
   215   1      7.6603891088939049      13.788305404248907      22.492730000000002
   216   1      7.6603891088939049      13.788305404248907      18.390070000000001
   217   1      7.6603891088939049      13.788305404248907      14.287419999999999
   218   1      56.563063310656091      50.189764987996412      11.292730000000001
   219   1      56.563063310656091      50.189764987996412      7.1900700000000004
   220   1      56.563063310656091      50.189764987996412      3.0874199999999998
   221   1       9.131244436443664      21.632348481337306      22.492730000000002
   222   1       9.131244436443664      21.632348481337306      18.390070000000001
   223   1       9.131244436443664      21.632348481337306      14.287419999999999
   224   1      8.3958109368651765      17.710330935711369      22.492730000000002
   225   1       20.40755274860609      60.117163539137145      14.287419999999999
   226   1      19.672121091912949      56.195136164789325      22.492730000000002
   227   1      19.672121091912949      56.195136164789325      18.390070000000001
   228   1      19.672121091912949      56.195136164789325      14.287419999999999
   229   1      21.142974576577359      64.039189070599605      22.492730000000002
   230   1      21.142974576577359      64.039189070599605      18.390070000000001
   231   1      21.142974576577359      64.039189070599605      14.287419999999999
   232   1      55.092302584554325      58.033822193872503      11.292730000000001
   233   1      55.092302584554325      58.033822193872503      7.1900700000000004
   234   1      55.092302584554325      58.033822193872503      3.0874199999999998
   235   1      55.827682026162528      54.111798505295397      11.292730000000001
   236   1      55.827682026162528      54.111798505295397      7.1900700000000004
   237   1      55.827682026162528      54.111798505295397      3.0874199999999998
   238   1      6.1895257955076275      5.9442506555532857      22.492730000000002
   239   1      6.1895257955076275      5.9442506555532857      18.390070000000001
   240   1      6.1895257955076275      5.9442506555532857      14.287419999999999
   241   1      17.465834107670055      44.429065713353111      18.390070000000001
   242   1      17.465834107670055      44.429065713353111      14.287419999999999
   243   1      16.730412279698783      40.507040181890659      22.492730000000002
   244   1      16.730412279698783      40.507040181890659      18.390070000000001
   245   1      16.730412279698783      40.507040181890659      14.287419999999999
   246   1      18.201265764363193      48.351093087700932      22.492730000000002
   247   1      18.201265764363193      48.351093087700932      18.390070000000001
   248   1      18.201265764363193      48.351093087700932      14.287419999999999
   249   1      54.356921300060762      61.955855711171488      11.292730000000001
   250   1      54.356921300060762      61.955855711171488      7.1900700000000004
   251   1      54.356921300060762      61.955855711171488      3.0874199999999998
   252   1      18.936689435219812      52.273108790441519      22.492730000000002
   253   1      18.936689435219812      52.273108790441519      18.390070000000001
   254   1      18.936689435219812      52.273108790441519      14.287419999999999
   255   1       20.40755274860609      60.117163539137145      22.492730000000002
   256   1       20.40755274860609      60.117163539137145      18.390070000000001
   257   1      14.524125295455883      28.740969730454442      22.492730000000002
   258   1      14.524125295455883      28.740969730454442      18.390070000000001
   259   1      14.524125295455883      28.740969730454442      14.287419999999999
   260   1       13.78869363876275      24.818942356106632      22.492730000000002
   261   1       13.78869363876275      24.818942356106632      18.390070000000001
   262   1       13.78869363876275      24.818942356106632      14.287419999999999
   263   1      15.259547123427156      32.662995261916905      22.492730000000002
   264   1      15.259547123427156      32.662995261916905      18.390070000000001
   265   1      15.259547123427156      32.662995261916905      14.287419999999999
   266   1      61.465603364394461      2.3899913246369731      11.292730000000001
   267   1      61.465603364394461      2.3899913246369731      7.1900700000000004
   268   1      61.465603364394461      2.3899913246369731      3.0874199999999998
   269   1      15.994978780120293      36.585022636264718      22.492730000000002
   270   1      15.994978780120293      36.585022636264718      18.390070000000001
   271   1      15.994978780120293      36.585022636264718      14.287419999999999
   272   1      17.465834107670055      44.429065713353111      22.492730000000002
   273   1      9.3761294989988198      1.2868032961195552      14.287419999999999
   274   1      11.582406654519847      13.052871904670418      22.492730000000002
   275   1      11.582406654519847      13.052871904670418      18.390070000000001
   276   1      11.582406654519847      13.052871904670418      14.287419999999999
   277   1      10.846982983663228      9.1308562019298254      22.492730000000002
   278   1      10.846982983663228      9.1308562019298254      18.390070000000001
   279   1      10.846982983663228      9.1308562019298254      14.287419999999999
   280   1      12.317838311212986      16.974899279018228      22.492730000000002
   281   1      12.317838311212986      16.974899279018228      18.390070000000001
   282   1      12.317838311212986      16.974899279018228      14.287419999999999
   283   1      60.730222079900898      6.3120248419359539      11.292730000000001
   284   1      60.730222079900898      6.3120248419359539      7.1900700000000004
   285   1      60.730222079900898      6.3120248419359539      3.0874199999999998
   286   1      13.053269967906125      20.896926653366041      22.492730000000002
   287   1      13.053269967906125      20.896926653366041      18.390070000000001
   288   1      13.053269967906125      20.896926653366041      14.287419999999999
   289   1      23.594148466260762      55.459704508096188      18.390070000000001
   290   1      23.594148466260762      55.459704508096188      14.287419999999999
   291   1      25.065001950925172       63.30375741390646      14.287419999999999
   292   1      24.329570294232028      59.381730039558647      22.492730000000002
   293   1      24.329570294232028      59.381730039558647      18.390070000000001
   294   1      24.329570294232028      59.381730039558647      14.287419999999999
   295   1      25.065001950925172       63.30375741390646      22.492730000000002
   296   1      25.065001950925172       63.30375741390646      18.390070000000001
   297   1      59.994840795407342      10.234058359234933      11.292730000000001
   298   1      59.994840795407342      10.234058359234933      7.1900700000000004
   299   1      59.994840795407342      10.234058359234933      3.0874199999999998
   300   1      10.111551326970089      5.2088288275820149      22.492730000000002
   301   1      10.111551326970089      5.2088288275820149      18.390070000000001
   302   1      10.111551326970089      5.2088288275820149      14.287419999999999
   303   1      9.3761294989988198      1.2868032961195552      22.492730000000002
   304   1      9.3761294989988198      1.2868032961195552      18.390070000000001
   305   1      22.123293138711006      47.615661431007787      14.287419999999999
   306   1      21.387861482017861      43.693634056659981      22.492730000000002
   307   1      21.387861482017861      43.693634056659981      18.390070000000001
   308   1      21.387861482017861      43.693634056659981      14.287419999999999
   309   1      58.524080069305576      18.078115565111023      11.292730000000001
   310   1      58.524080069305576      18.078115565111023      7.1900700000000004
   311   1      58.524080069305576      18.078115565111023      3.0874199999999998
   312   1      59.259461353799132      14.156082047812044      11.292730000000001
   313   1      59.259461353799132      14.156082047812044      7.1900700000000004
   314   1      59.259461353799132      14.156082047812044      3.0874199999999998
   315   1      22.858714966682271      51.537686962470246      22.492730000000002
   316   1      22.858714966682271      51.537686962470246      18.390070000000001
   317   1      22.858714966682271      51.537686962470246      14.287419999999999
   318   1      22.123293138711006      47.615661431007787      22.492730000000002
   319   1      22.123293138711006      47.615661431007787      18.390070000000001
   320   1      23.594148466260762      55.459704508096188      22.492730000000002
   321   1      17.710719170225207      24.083520528135359      14.287419999999999
   322   1      19.181574497774967      31.927563605223764      14.287419999999999
   323   1      18.446140998196476      28.005546059597823      22.492730000000002
   324   1      18.446140998196476      28.005546059597823      18.390070000000001
   325   1      18.446140998196476      28.005546059597823      14.287419999999999
   326   1      19.917006154468105      35.849590979571573      22.492730000000002
   327   1      19.917006154468105      35.849590979571573      18.390070000000001
   328   1      19.917006154468105      35.849590979571573      14.287419999999999
   329   1      19.181574497774967      31.927563605223764      22.492730000000002
   330   1      19.181574497774967      31.927563605223764      18.390070000000001
   331   1      57.788698784812013      22.000149082410001      11.292730000000001
   332   1      57.788698784812013      22.000149082410001      7.1900700000000004
   333   1      57.788698784812013      22.000149082410001      3.0874199999999998
   334   1      20.652427982439374      39.771616511034033      22.492730000000002
   335   1      20.652427982439374      39.771616511034033      18.390070000000001
   336   1      20.652427982439374      39.771616511034033      14.287419999999999
   337   1      14.769000529289171      8.3954227023513361      18.390070000000001
   338   1      14.769000529289171      8.3954227023513361      14.287419999999999
   339   1      16.239865685560801       16.23946762232509      14.287419999999999
   340   1      15.504432185982308      12.317450076699147      22.492730000000002
   341   1      15.504432185982308      12.317450076699147      18.390070000000001
   342   1      15.504432185982308      12.317450076699147      14.287419999999999
   343   1      57.053317500318457      25.922182599708982      11.292730000000001
   344   1      57.053317500318457      25.922182599708982      7.1900700000000004
   345   1      57.053317500318457      25.922182599708982      3.0874199999999998
   346   1      16.975287513532066       20.16149315378755      22.492730000000002
   347   1      16.975287513532066       20.16149315378755      18.390070000000001
   348   1      16.975287513532066       20.16149315378755      14.287419999999999
   349   1      16.239865685560801       16.23946762232509      22.492730000000002
   350   1      16.239865685560801       16.23946762232509      18.390070000000001
   351   1      17.710719170225207      24.083520528135359      22.492730000000002
   352   1      17.710719170225207      24.083520528135359      18.390070000000001
   353   1      28.987029325272974      62.568325757213323      22.492730000000002
   354   1      28.987029325272974      62.568325757213323      18.390070000000001
   355   1      28.987029325272974      62.568325757213323      14.287419999999999
   356   1      55.582554931331337      33.766249634306938      11.292730000000001
   357   1      55.582554931331337      33.766249634306938      7.1900700000000004