(written by ASE)

4344 atoms
3 atom types

0.0      53.685060150777595  xlo xhi
0.0      53.685060150777595  ylo yhi
0.0                      50  zlo zhi

Masses

     1       137.3269999646734 # Ba
     2      15.998999995884349 # O
     3      47.866999987686484 # Ti

Atoms # atomic

     1   1      50.496586467924061      46.789047902443677      3.0874199999999998
     2   1      53.462612563225832      49.458471388215266      11.292730000000001
     3   1      53.462612563225832      49.458471388215266      7.1900700000000004
     4   1      53.462612563225832      49.458471388215266      3.0874199999999998
     5   1      50.793189077454244       52.42449748351703      11.292730000000001
     6   1      34.776648906118837      16.535595852954422      7.1900700000000004
     7   1      34.776648906118837      16.535595852954422      3.0874199999999998
     8   1      32.107225420347241       19.50162194825619      11.292730000000001
     9   1       32.25310284290142      31.368211905088312      22.492730000000002
    10   1       32.25310284290142      31.368211905088312      18.390070000000001
    11   1       32.25310284290142      31.368211905088312      14.287419999999999
    12   1      29.286868625238707      34.037402739792128      22.492730000000002
    13   1      29.286868625238707      34.037402739792128      18.390070000000001
    14   1      29.286868625238707      34.037402739792128      14.287419999999999
    15   1      32.107225420347241       19.50162194825619      7.1900700000000004
    16   1      32.107225420347241       19.50162194825619      3.0874199999999998
    17   1      17.573697553368586      11.789954100471597      11.292730000000001
    18   1      25.581968010683354      2.8918758145662946      11.292730000000001
    19   1      25.581968010683354      2.8918758145662946      7.1900700000000004
    20   1      25.581968010683354      2.8918758145662946      3.0874199999999998
    21   1      42.191713401079106      50.051676607275624      3.0874199999999998
    22   1      39.522289915307518      53.017702702577388      11.292730000000001
    23   1      39.522289915307518      53.017702702577388      7.1900700000000004
    24   1      39.522289915307518      53.017702702577388      3.0874199999999998
    25   1      53.166003264048335      43.823029240083372      11.292730000000001
    26   1      53.166003264048335      43.823029240083372      7.1900700000000004
    27   1      53.166003264048335      43.823029240083372      3.0874199999999998
    28   1      2.5949335196112848      4.3750902949308133      22.492730000000002
    29   1      2.5949335196112848      4.3750902949308133      18.390070000000001
    30   1      2.5949335196112848      4.3750902949308133      14.287419999999999
    31   1      50.793189077454244       52.42449748351703      7.1900700000000004
    32   1      50.496586467924061      46.789047902443677      7.1900700000000004
    33   1       47.53056037262229      44.119624416672089      11.292730000000001
    34   1       47.53056037262229      44.119624416672089      7.1900700000000004
    35   1       47.53056037262229      44.119624416672089      3.0874199999999998
    36   1      5.2641310439624176      7.3413170796520681      22.492730000000002
    37   1      5.2641310439624176      7.3413170796520681      18.390070000000001
    38   1      5.2641310439624176      7.3413170796520681      14.287419999999999
    39   1      11.196592046346389        2.00292872059712      22.492730000000002
    40   1      11.196592046346389        2.00292872059712      18.390070000000001
    41   1      11.196592046346389        2.00292872059712      14.287419999999999
    42   1      1.2605607188561794      23.950653658267381      11.292730000000001
    43   1      1.2605607188561794      23.950653658267381      7.1900700000000004
    44   1      1.2605607188561794      23.950653658267381      3.0874199999999998
    45   1      17.573697553368586      11.789954100471597      7.1900700000000004
    46   1      17.573697553368586      11.789954100471597      3.0874199999999998
    47   1       14.90428075724431      14.755972762831902      11.292730000000001
    48   1       14.90428075724431      14.755972762831902      7.1900700000000004
    49   1      50.199977168746564      41.153605754311783      7.1900700000000004
    50   1      50.199977168746564      41.153605754311783      3.0874199999999998
    51   1      16.832017098712921      2.2999721035560197      22.492730000000002
    52   1      16.832017098712921      2.2999721035560197      18.390070000000001
    53   1      16.832017098712921      2.2999721035560197      14.287419999999999
    54   1      2.2978968262997013      10.010507914355882      22.492730000000002
    55   1      2.2978968262997013      10.010507914355882      18.390070000000001
    56   1       12.23485727147272       17.72199885813367      11.292730000000001
    57   1       12.23485727147272       17.72199885813367      7.1900700000000004
    58   1       12.23485727147272       17.72199885813367      3.0874199999999998
    59   1      9.2688311761709503      15.052575372362078      11.292730000000001
    60   1      9.2688311761709503      15.052575372362078      7.1900700000000004
    61   1      9.2688311761709503      15.052575372362078      3.0874199999999998
    62   1      6.5994076903993593      18.018601467663846      11.292730000000001
    63   1      6.5994076903993593      18.018601467663846      7.1900700000000004
    64   1      2.2978968262997013      10.010507914355882      14.287419999999999
    65   1      13.865782881050203      4.9691629382598359      18.390070000000001
    66   1      13.865782881050203      4.9691629382598359      14.287419999999999
    67   1      52.869400654518152      38.187579659010012      11.292730000000001
    68   1      52.869400654518152      38.187579659010012      7.1900700000000004
    69   1      52.869400654518152      38.187579659010012      3.0874199999999998
    70   1      9.5654337857011296      20.688024953435438      11.292730000000001
    71   1      9.5654337857011296      20.688024953435438      7.1900700000000004
    72   1      9.5654337857011296      20.688024953435438      3.0874199999999998
    73   1      6.8960102999295385      23.654051048737209      11.292730000000001
    74   1       11.93825466194254       12.08654927706031      11.292730000000001
    75   1       11.93825466194254       12.08654927706031      7.1900700000000004
    76   1       11.93825466194254       12.08654927706031      3.0874199999999998
    77   1      17.277094943838406      6.1545045193982384      3.0874199999999998
    78   1      14.607671458066815      9.1205306147000051      11.292730000000001
    79   1      14.607671458066815      9.1205306147000051      7.1900700000000004
    80   1      50.199977168746564      41.153605754311783      11.292730000000001
    81   1      17.277094943838406      6.1545045193982384      11.292730000000001
    82   1      4.9670876610035162        12.9767421320186      14.287419999999999
    83   1      39.225687305777342      47.382253121504029      11.292730000000001
    84   1      39.225687305777342      47.382253121504029      7.1900700000000004
    85   1      39.225687305777342      47.382253121504029      3.0874199999999998
    86   1      10.899556096328951      7.6383604626109678      22.492730000000002
    87   1      10.899556096328951      7.6383604626109678      18.390070000000001
    88   1      10.899556096328951      7.6383604626109678      14.287419999999999
    89   1      7.9333218786662325      10.307551297314783      22.492730000000002
    90   1      36.556263820005753      50.348279216805793      11.292730000000001
    91   1      36.556263820005753      50.348279216805793      7.1900700000000004
    92   1      36.556263820005753      50.348279216805793      3.0874199999999998
    93   1      33.886840334234165      53.314305312107564      11.292730000000001
    94   1      33.886840334234165      53.314305312107564      7.1900700000000004
    95   1      33.886840334234165      53.314305312107564      3.0874199999999998
    96   1      13.865782881050203      4.9691629382598359      22.492730000000002
    97   1      41.895110791548937      44.416227026202257      11.292730000000001
    98   1      41.895110791548937      44.416227026202257      7.1900700000000004
    99   1      41.895110791548937      44.416227026202257      3.0874199999999998
   100   1      7.9333218786662325      10.307551297314783      18.390070000000001
   101   1      7.9333218786662325      10.307551297314783      14.287419999999999
   102   1      4.9670876610035162        12.9767421320186      22.492730000000002
   103   1      4.9670876610035162        12.9767421320186      18.390070000000001
   104   1      14.607671458066815      9.1205306147000051      3.0874199999999998
   105   1      6.8960102999295385      23.654051048737209      7.1900700000000004
   106   1      6.8960102999295385      23.654051048737209      3.0874199999999998
   107   1      4.2265868141579492      26.620077144038973      11.292730000000001
   108   1      4.2265868141579492      26.620077144038973      7.1900700000000004
   109   1      4.2265868141579492      26.620077144038973      3.0874199999999998
   110   1      19.946518429609995      3.1884784240964703      11.292730000000001
   111   1      19.946518429609995      3.1884784240964703      7.1900700000000004
   112   1      19.946518429609995      3.1884784240964703      3.0874199999999998
   113   1      22.615941915381587     0.22245232879470264      11.292730000000001
   114   1      22.615941915381587     0.22245232879470264      7.1900700000000004
   115   1      22.615941915381587     0.22245232879470264      3.0874199999999998
   116   1      0.9639581093260029      18.315204077194029      11.292730000000001
   117   1      0.9639581093260029      18.315204077194029      7.1900700000000004
   118   1      0.9639581093260029      18.315204077194029      3.0874199999999998
   119   1      19.501214623064051      5.2661988882772732      22.492730000000002
   120   1        47.2339510734448      38.484182268540188      11.292730000000001
   121   1        47.2339510734448      38.484182268540188      7.1900700000000004
   122   1        47.2339510734448      38.484182268540188      3.0874199999999998
   123   1      44.564534277320526      41.450200930900493      11.292730000000001
   124   1      2.0008608762822635      15.645939656369732      22.492730000000002
   125   1      2.0008608762822635      15.645939656369732      18.390070000000001
   126   1      2.0008608762822635      15.645939656369732      14.287419999999999
   127   1      44.564534277320526      41.450200930900493      7.1900700000000004
   128   1      44.564534277320526      41.450200930900493      3.0874199999999998
   129   1      3.6333815950975934      15.349177981892259      7.1900700000000004
   130   1      3.6333815950975934      15.349177981892259      3.0874199999999998
   131   1      31.217417591756714      2.5952732050361149      3.0874199999999998
   132   1      16.534980405401335      7.9353897229810899      22.492730000000002
   133   1      16.534980405401335      7.9353897229810899      18.390070000000001
   134   1      16.534980405401335      7.9353897229810899      14.287419999999999
   135   1      49.903374559216388      35.518156173238417      11.292730000000001
   136   1      49.903374559216388      35.518156173238417      7.1900700000000004
   137   1      49.903374559216388      35.518156173238417      3.0874199999999998
   138   1      22.467441407785305      2.5970013639261427      22.492730000000002
   139   1      22.467441407785305      2.5970013639261427      18.390070000000001
   140   1      22.467441407785305      2.5970013639261427      14.287419999999999
   141   1      17.277094943838406      6.1545045193982384      7.1900700000000004
   142   1      1.5571633283863571      29.586103239340744      11.292730000000001
   143   1      1.5571633283863571      29.586103239340744      7.1900700000000004
   144   1      1.5571633283863571      29.586103239340744      3.0874199999999998
   145   1      28.251390753160809       53.61090792163774      11.292730000000001
   146   1      28.251390753160809       53.61090792163774      7.1900700000000004
   147   1      28.251390753160809       53.61090792163774      3.0874199999999998
   148   1      52.572798044987984      32.552130077936653      11.292730000000001
   149   1      52.572798044987984      32.552130077936653      7.1900700000000004
   150   1      52.572798044987984      32.552130077936653      3.0874199999999998
   151   1      13.568746931032766      10.604594680273685      22.492730000000002
   152   1      13.568746931032766      10.604594680273685      18.390070000000001
   153   1      13.568746931032766      10.604594680273685      14.287419999999999
   154   1      19.501214623064051      5.2661988882772732      18.390070000000001
   155   1      19.501214623064051      5.2661988882772732      14.287419999999999
   156   1      31.217417591756714      2.5952732050361149      11.292730000000001
   157   1      31.217417591756714      2.5952732050361149      7.1900700000000004
   158   1      6.3028050808691845       12.38315188659049      7.1900700000000004
   159   1      6.3028050808691845       12.38315188659049      3.0874199999999998
   160   1      3.6333815950975934      15.349177981892259      11.292730000000001
   161   1      33.590237724703989      47.678855731034204      3.0874199999999998
   162   1      30.920814238932401      50.644881826335975      11.292730000000001
   163   1      30.920814238932401      50.644881826335975      7.1900700000000004
   164   1      10.602512713370048      13.273785514977501      22.492730000000002
   165   1      10.602512713370048      13.273785514977501      18.390070000000001
   166   1      10.602512713370048      13.273785514977501      14.287419999999999
   167   1      7.6362784957073329      15.942976349681317      22.492730000000002
   168   1      28.547994105985122      5.5612993003378826      11.292730000000001
   169   1      28.547994105985122      5.5612993003378826      7.1900700000000004
   170   1      28.547994105985122      5.5612993003378826      3.0874199999999998
   171   1      8.9722285666407746      9.4171257912887221      11.292730000000001
   172   1      8.9722285666407746      9.4171257912887221      7.1900700000000004
   173   1      8.9722285666407746      9.4171257912887221      3.0874199999999998
   174   1      6.3028050808691845       12.38315188659049      11.292730000000001
   175   1      11.641645362765049      6.4511071289284176      11.292730000000001
   176   1      30.920814238932401      50.644881826335975      3.0874199999999998
   177   1      16.980492334308231     0.51905493832488203      3.0874199999999998
   178   1      14.311068848536641        3.48508103362665      11.292730000000001
   179   1      14.311068848536641        3.48508103362665      7.1900700000000004
   180   1      14.311068848536641        3.48508103362665      3.0874199999999998
   181   1      1.7038174933233614      21.281364708736263      18.390070000000001
   182   1      1.7038174933233614      21.281364708736263      14.287419999999999
   183   1      36.259661210475578       44.71282963573244      11.292730000000001
   184   1      36.259661210475578       44.71282963573244      7.1900700000000004
   185   1      36.259661210475578       44.71282963573244      3.0874199999999998
   186   1      7.6362784957073329      15.942976349681317      18.390070000000001
   187   1      7.6362784957073329      15.942976349681317      14.287419999999999
   188   1       4.670051710986078      18.612173874032447      22.492730000000002
   189   1       4.670051710986078      18.612173874032447      18.390070000000001
   190   1       4.670051710986078      18.612173874032447      14.287419999999999
   191   1      33.590237724703989      47.678855731034204      11.292730000000001
   192   1      33.590237724703989      47.678855731034204      7.1900700000000004
   193   1       20.53972364867035      14.459377586243185      3.0874199999999998
   194   1      28.102866460151837       2.894044746885041      14.287419999999999
   195   1      41.598508182018762      38.780777445128905      3.0874199999999998
   196   1      38.929084696247173      41.746803540430669      11.292730000000001
   197   1      38.929084696247173      41.746803540430669      7.1900700000000004
   198   1      38.929084696247173      41.746803540430669      3.0874199999999998
   199   1      31.069100677814554     0.22485391218122638      22.492730000000002
   200   1      31.069100677814554     0.22485391218122638      18.390070000000001
   201   1      31.069100677814554     0.22485391218122638      14.287419999999999
   202   1      1.7038174933233614      21.281364708736263      22.492730000000002
   203   1      11.641645362765049      6.4511071289284176      7.1900700000000004
   204   1      11.641645362765049      6.4511071289284176      3.0874199999999998
   205   1       25.87857062021353      8.5273253956396502      11.292730000000001
   206   1       25.87857062021353      8.5273253956396502      7.1900700000000004
   207   1       25.87857062021353      8.5273253956396502      3.0874199999999998
   208   1      16.980492334308231     0.51905493832488203      7.1900700000000004
   209   1      41.598508182018762      38.780777445128905      11.292730000000001
   210   1      41.598508182018762      38.780777445128905      7.1900700000000004
   211   1      25.136632242489121      5.5632355815888586      22.492730000000002
   212   1      25.136632242489121      5.5632355815888586      18.390070000000001
   213   1      25.136632242489121      5.5632355815888586      14.287419999999999
   214   1      22.170405457767867      8.2324331059399896      22.492730000000002
   215   1      22.170405457767867      8.2324331059399896      18.390070000000001
   216   1      28.102866460151837       2.894044746885041      22.492730000000002
   217   1      28.102866460151837       2.894044746885041      18.390070000000001
   218   1      23.209147134441942      11.493351490941418      11.292730000000001
   219   1      23.209147134441942      11.493351490941418      7.1900700000000004
   220   1      23.209147134441942      11.493351490941418      3.0874199999999998
   221   1       20.53972364867035      14.459377586243185      11.292730000000001
   222   1       20.53972364867035      14.459377586243185      7.1900700000000004
   223   1     0.66735549979582587      12.679754496120667      3.0874199999999998
   224   1      16.980492334308231     0.51905493832488203      11.292730000000001
   225   1      46.937348463914624      32.848732687466828      11.292730000000001
   226   1      46.937348463914624      32.848732687466828      7.1900700000000004
   227   1      46.937348463914624      32.848732687466828      3.0874199999999998
   228   1      44.267924978143036        35.8147587827686      11.292730000000001
   229   1      44.267924978143036        35.8147587827686      7.1900700000000004
   230   1      44.267924978143036        35.8147587827686      3.0874199999999998
   231   1      17.870306852546076      17.425396248603491      11.292730000000001
   232   1      17.870306852546076      17.425396248603491      7.1900700000000004
   233   1      17.870306852546076      17.425396248603491      3.0874199999999998
   234   1      3.3367789855674168      9.7137284008188995      11.292730000000001
   235   1      3.3367789855674168      9.7137284008188995      7.1900700000000004
   236   1      3.3367789855674168      9.7137284008188995      3.0874199999999998
   237   1     0.66735549979582587      12.679754496120667      11.292730000000001
   238   1     0.66735549979582587      12.679754496120667      7.1900700000000004
   239   1       6.006202471339007      6.7477023055171319      11.292730000000001
   240   1       6.006202471339007      6.7477023055171319      7.1900700000000004
   241   1       8.675619267463281      3.7816836431568266      11.292730000000001
   242   1       8.675619267463281      3.7816836431568266      7.1900700000000004
   243   1       8.675619267463281      3.7816836431568266      3.0874199999999998
   244   1      10.305476020058464      18.909203134402571      22.492730000000002
   245   1      10.305476020058464      18.909203134402571      18.390070000000001
   246   1      52.276195435457808      26.916680496863293      3.0874199999999998
   247   1       49.60677194968622      29.882706592165061      11.292730000000001
   248   1       49.60677194968622      29.882706592165061      7.1900700000000004
   249   1       49.60677194968622      29.882706592165061      3.0874199999999998
   250   1      16.237944455383897      13.570821464994939      22.492730000000002
   251   1      16.237944455383897      13.570821464994939      18.390070000000001
   252   1      16.237944455383897      13.570821464994939      14.287419999999999
   253   1      22.170405457767867      8.2324331059399896      14.287419999999999
   254   1      19.204171240105154      10.901623940643807      22.492730000000002
   255   1      19.204171240105154      10.901623940643807      18.390070000000001
   256   1      19.204171240105154      10.901623940643807      14.287419999999999
   257   1      52.276195435457808      26.916680496863293      11.292730000000001
   258   1      52.276195435457808      26.916680496863293      7.1900700000000004
   259   1      10.305476020058464      18.909203134402571      14.287419999999999
   260   1      7.3392492353372081      21.578400658753701      22.492730000000002
   261   1      7.3392492353372081      21.578400658753701      18.390070000000001
   262   1      7.3392492353372081      21.578400658753701      14.287419999999999
   263   1      13.271710237721182      16.240012299698755      22.492730000000002
   264   1      13.271710237721182      16.240012299698755      18.390070000000001
   265   1      13.271710237721182      16.240012299698755      14.287419999999999
   266   1       6.006202471339007      6.7477023055171319      3.0874199999999998
   267   1      15.200883366774486      20.391422343905258      11.292730000000001
   268   1      15.200883366774486      20.391422343905258      7.1900700000000004
   269   1      15.200883366774486      20.391422343905258      3.0874199999999998
   270   1      11.345042753234873     0.81565754785505884      11.292730000000001
   271   1      11.345042753234873     0.81565754785505884      7.1900700000000004
   272   1      11.345042753234873     0.81565754785505884      3.0874199999999998
   273   1       27.95478814363063      47.975458340564387      7.1900700000000004
   274   1       27.95478814363063      47.975458340564387      3.0874199999999998
   275   1      4.3730150176744926      24.247591493457517      22.492730000000002
   276   1      4.3730150176744926      24.247591493457517      18.390070000000001
   277   1      4.3730150176744926      24.247591493457517      14.287419999999999
   278   1      25.285364657859038      50.941484435866151      11.292730000000001
   279   1      25.285364657859038      50.941484435866151      7.1900700000000004
   280   1      12.531459881002895      23.357448439207026      11.292730000000001
   281   1      12.531459881002895      23.357448439207026      7.1900700000000004
   282   1      12.531459881002895      23.357448439207026      3.0874199999999998
   283   1      9.8620363952313035      26.323474534508797      11.292730000000001
   284   1      9.8620363952313035      26.323474534508797      7.1900700000000004
   285   1     0.37075289026564845      7.0443049150473085      7.1900700000000004
   286   1     0.37075289026564845      7.0443049150473085      3.0874199999999998
   287   1      9.8620363952313035      26.323474534508797      3.0874199999999998
   288   1      25.285364657859038      50.941484435866151      3.0874199999999998
   289   1     0.37075289026564845      7.0443049150473085      11.292730000000001
   290   1      5.7095931721615134      1.1122601573852353      11.292730000000001
   291   1      5.7095931721615134      1.1122601573852353      7.1900700000000004
   292   1      5.7095931721615134      1.1122601573852353      3.0874199999999998
   293   1      33.738291512518373       3.191088129843942      18.390070000000001
   294   1      33.738291512518373       3.191088129843942      14.287419999999999
   295   1      33.293635115173807      42.043406149960852      11.292730000000001
   296   1      33.293635115173807      42.043406149960852      7.1900700000000004
   297   1      33.293635115173807      42.043406149960852      3.0874199999999998
   298   1      30.624211629402218      45.009432245262616      11.292730000000001
   299   1      1.4067882329532417       26.91678901780865      22.492730000000002
   300   1      1.4067882329532417       26.91678901780865      18.390070000000001
   301   1      1.4067882329532417       26.91678901780865      14.287419999999999
   302   1      30.624211629402218      45.009432245262616      7.1900700000000004
   303   1      30.624211629402218      45.009432245262616      3.0874199999999998
   304   1       27.95478814363063      47.975458340564387      11.292730000000001
   305   1      30.772057294855653      5.8602789645477564      22.492730000000002
   306   1      30.772057294855653      5.8602789645477564      18.390070000000001
   307   1      30.772057294855653      5.8602789645477564      14.287419999999999
   308   1      35.963058600945402      39.077380054659081      11.292730000000001
   309   1      35.963058600945402      39.077380054659081      7.1900700000000004
   310   1      35.963058600945402      39.077380054659081      3.0874199999999998
   311   1      36.704524986886945     0.52188317255135097      22.492730000000002
   312   1      36.704524986886945     0.52188317255135097      18.390070000000001
   313   1      36.704524986886945     0.52188317255135097      14.287419999999999
   314   1      33.738291512518373       3.191088129843942      22.492730000000002
   315   1      7.1926129094597151      29.289500629810561      11.292730000000001
   316   1      7.1926129094597151      29.289500629810561      7.1900700000000004
   317   1      7.1926129094597151      29.289500629810561      3.0874199999999998
   318   1      3.0401763760372389      4.0782788197455409      11.292730000000001
   319   1      3.0401763760372389      4.0782788197455409      7.1900700000000004
   320   1      3.0401763760372389      4.0782788197455409      3.0874199999999998
   321   1      21.873362074808966      13.867858158306523      14.287419999999999
   322   1      41.301898882841265      33.145335296997011      7.1900700000000004
   323   1      41.301898882841265      33.145335296997011      3.0874199999999998
   324   1       38.63248208671699      36.111353959357317      11.292730000000001
   325   1       38.63248208671699      36.111353959357317      7.1900700000000004
   326   1       38.63248208671699      36.111353959357317      3.0874199999999998
   327   1      27.805830510134403      8.5294764888988936      22.492730000000002
   328   1      27.805830510134403      8.5294764888988936      18.390070000000001
   329   1      27.805830510134403      8.5294764888988936      14.287419999999999
   330   1      4.5231894236881232      32.255526725112333      11.292730000000001
   331   1      4.5231894236881232      32.255526725112333      7.1900700000000004
   332   1      4.5231894236881232      32.255526725112333      3.0874199999999998
   333   1    0.074150280735471238      1.4088553339739502      11.292730000000001
   334   1    0.074150280735471238      1.4088553339739502      7.1900700000000004
   335   1    0.074150280735471238      1.4088553339739502      3.0874199999999998
   336   1      1.8537659379165334      35.221552820414097      11.292730000000001
   337   1      24.839596292471683      11.198667323602709      22.492730000000002
   338   1      24.839596292471683      11.198667323602709      18.390070000000001
   339   1      24.839596292471683      11.198667323602709      14.287419999999999
   340   1      21.873362074808966      13.867858158306523      22.492730000000002
   341   1      1.8537659379165334      35.221552820414097      7.1900700000000004
   342   1      1.8537659379165334      35.221552820414097      3.0874199999999998
   343   1      45.302041135345007      51.834792436591357      22.492730000000002
   344   1      45.302041135345007      51.834792436591357      18.390070000000001
   345   1      45.302041135345007      51.834792436591357      14.287419999999999
   346   1      50.937458754770091      52.131829129902947      22.492730000000002
   347   1      50.937458754770091      52.131829129902947      18.390070000000001
   348   1      50.937458754770091      52.131829129902947      14.287419999999999
   349   1      48.268267920066272      49.165594912240223      22.492730000000002
   350   1      48.268267920066272      49.165594912240223      18.390070000000001
   351   1      48.268267920066272      49.165594912240223      14.287419999999999
   352   1      21.873362074808966      13.867858158306523      18.390070000000001
   353   1      42.632843610993881      48.868565651870099      22.492730000000002
   354   1      42.632843610993881      48.868565651870099      18.390070000000001
   355   1      10.008440070041022      24.544634876416417      14.287419999999999
   356   1      46.640745854384448      27.213283106393472      11.292730000000001
   357   1      46.640745854384448      27.213283106393472      7.1900700000000004