(written by ASE)

7320 atoms
3 atom types

0.0      69.688974905621805  xlo xhi
0.0      69.688974905621805  ylo yhi
0.0                      50  zlo zhi

Masses

     1       137.3269999646734 # Ba
     2      15.998999995884349 # O
     3      47.866999987686484 # Ti

Atoms # atomic

     1   1      67.918193713861854      64.148126689570873      11.292730000000001
     2   1      67.918193713861854      64.148126689570873      7.1900700000000004
     3   1      67.918193713861854      64.148126689570873      3.0874199999999998
     4   1      30.903065108914351      47.239990148668532      11.292730000000001
     5   1      30.903065108914351      47.239990148668532      7.1900700000000004
     6   1      30.903065108914351      47.239990148668532      3.0874199999999998
     7   1        31.8170190854261      43.355685748493599      11.292730000000001
     8   1        31.8170190854261      43.355685748493599      7.1900700000000004
     9   1        31.8170190854261      43.355685748493599      3.0874199999999998
    10   1      32.730973061937853      39.471381348318666      11.292730000000001
    11   1      32.730973061937853      39.471381348318666      7.1900700000000004
    12   1      29.075159446284189      55.008589214846715      3.0874199999999998
    13   1      29.989111132402602      51.124294548843466      11.292730000000001
    14   1      29.989111132402602      51.124294548843466      7.1900700000000004
    15   1      29.989111132402602      51.124294548843466      3.0874199999999998
    16   1       28.16120546977244      58.892893615021656      11.292730000000001
    17   1      2.7978923943428642      59.806904278768499      14.287419999999999
    18   1      4.6256669319544681      67.575538846043415      22.492730000000002
    19   1      4.6256669319544681      67.575538846043415      18.390070000000001
    20   1      4.6256669319544681      67.575538846043415      14.287419999999999
    21   1      67.689702929340584      47.696964846531074      11.292730000000001
    22   1      67.689702929340584      47.696964846531074      7.1900700000000004
    23   1      67.689702929340584      47.696964846531074      3.0874199999999998
    24   1      68.603656905852333      43.812660446356141      11.292730000000001
    25   1      68.603656905852333      43.812660446356141      7.1900700000000004
    26   1      68.603656905852333      43.812660446356141      3.0874199999999998
    27   1      69.517610882364082      39.928356046181207      11.292730000000001
    28   1      69.517610882364082      39.928356046181207      7.1900700000000004
    29   1      69.517610882364082      39.928356046181207      3.0874199999999998
    30   1      68.832145399980263      60.263832023567623      11.292730000000001
    31   1      68.832145399980263      60.263832023567623      7.1900700000000004
    32   1       67.00423973735009      68.032431089745813      3.0874199999999998
    33   1      6.6822156902628329      58.893013288073526      18.390070000000001
    34   1      6.6822156902628329      58.893013288073526      14.287419999999999
    35   1       5.768334433739537      55.008692282546903      22.492730000000002
    36   1      7.5961066809578046      62.777336583993495      22.492730000000002
    37   1      7.5961066809578046      62.777336583993495      18.390070000000001
    38   1      7.5961066809578046      62.777336583993495      14.287419999999999
    39   1      8.5099879374810961      66.661657589520118      22.492730000000002
    40   1      8.5099879374810961      66.661657589520118      18.390070000000001
    41   1      8.5099879374810961      66.661657589520118      14.287419999999999
    42   1      64.947840999805337      59.349878047055874      11.292730000000001
    43   1      64.947840999805337      59.349878047055874      7.1900700000000004
    44   1      64.947840999805337      59.349878047055874      3.0874199999999998
    45   1      65.861794976317086      55.465573646880941      11.292730000000001
    46   1    0.056248624772989315       48.15394126218861      18.390070000000001
    47   1    0.056248624772989315       48.15394126218861      14.287419999999999
    48   1     0.97012988129627853      52.038262267715247      22.492730000000002
    49   1      3.0266883737763277      43.355739000138691      22.492730000000002
    50   1      3.0266883737763277      43.355739000138691      18.390070000000001
    51   1      3.0266883737763277      43.355739000138691      14.287419999999999
    52   1      2.1127973830813511      39.471415704218721      22.492730000000002
    53   1      3.9405696302996169      47.240060005665327      22.492730000000002
    54   1      3.9405696302996169      47.240060005665327      18.390070000000001
    55   1      3.9405696302996169      47.240060005665327      14.287419999999999
    56   1      64.033889313686927      63.234172713059124      11.292730000000001
    57   1      64.033889313686927      63.234172713059124      7.1900700000000004
    58   1      64.033889313686927      63.234172713059124      3.0874199999999998
    59   1       5.768334433739537      55.008692282546903      18.390070000000001
    60   1       5.768334433739537      55.008692282546903      14.287419999999999
    61   1      4.8544508868229093       51.12438101119195      22.492730000000002
    62   1      4.8544508868229093       51.12438101119195      18.390070000000001
    63   1      4.8544508868229093       51.12438101119195      14.287419999999999
    64   1      6.6822156902628329      58.893013288073526      22.492730000000002
    65   1      12.394308943007726      65.747776332996835      18.390070000000001
    66   1      12.394308943007726      65.747776332996835      14.287419999999999
    67   1      13.308190199531019      69.632097338523465      22.492730000000002
    68   1      13.308190199531019      69.632097338523465      18.390070000000001
    69   1      13.308190199531019      69.632097338523465      14.287419999999999
    70   1     0.28503487003476902      31.702773693165465      22.492730000000002
    71   1     0.28503487003476902      31.702773693165465      18.390070000000001
    72   1     0.28503487003476902      31.702773693165465      14.287419999999999
    73   1      63.119935337175171      67.118477113234064      11.292730000000001
    74   1      63.119935337175171      67.118477113234064      7.1900700000000004
    75   1      63.119935337175171      67.118477113234064      3.0874199999999998
    76   1      2.1127973830813511      39.471415704218721      18.390070000000001
    77   1      2.1127973830813511      39.471415704218721      14.287419999999999
    78   1      1.1989161265580617      35.587094698692091      22.492730000000002
    79   1      1.1989161265580617      35.587094698692091      18.390070000000001
    80   1      1.1989161265580617      35.587094698692091      14.287419999999999
    81   1      9.6526554392661694      54.094811026023606      14.287419999999999
    82   1      67.461214435212653      31.245793269319584      11.292730000000001
    83   1      67.461214435212653      31.245793269319584      7.1900700000000004
    84   1      67.461214435212653      31.245793269319584      3.0874199999999998
    85   1      68.375168411724403      27.361488869144651      11.292730000000001
    86   1      68.375168411724403      27.361488869144651      7.1900700000000004
    87   1      68.375168411724403      27.361488869144651      3.0874199999999998
    88   1      69.289122388236152      23.477184468969714      11.292730000000001
    89   1      69.289122388236152      23.477184468969714      7.1900700000000004
    90   1      69.289122388236152      23.477184468969714      3.0874199999999998
    91   1      11.480417952312752      61.863453037076866      22.492730000000002
    92   1      11.480417952312752      61.863453037076866      18.390070000000001
    93   1      11.480417952312752      61.863453037076866      14.287419999999999
    94   1      10.566536695789461      57.979132031550236      22.492730000000002
    95   1      10.566536695789461      57.979132031550236      18.390070000000001
    96   1      12.394308943007726      65.747776332996835      22.492730000000002
    97   1        5.99711838860798      38.557534447695431      18.390070000000001
    98   1        5.99711838860798      38.557534447695431      14.287419999999999
    99   1      7.8248906358262493      46.326178749142031      22.492730000000002
   100   1      7.8248906358262493      46.326178749142031      18.390070000000001
   101   1      7.8248906358262493      46.326178749142031      14.287419999999999
   102   1       6.910999645131275      42.441855453222061      22.492730000000002
   103   1       6.910999645131275      42.441855453222061      18.390070000000001
   104   1       8.738774182742878      50.210490020496977      22.492730000000002
   105   1       8.738774182742878      50.210490020496977      18.390070000000001
   106   1       8.738774182742878      50.210490020496977      14.287419999999999
   107   1      66.547260458700904      35.130097669494518      11.292730000000001
   108   1      66.547260458700904      35.130097669494518      7.1900700000000004
   109   1      66.547260458700904      35.130097669494518      3.0874199999999998
   110   1      10.566536695789461      57.979132031550236      14.287419999999999
   111   1      9.6526554392661694      54.094811026023606      22.492730000000002
   112   1      9.6526554392661694      54.094811026023606      18.390070000000001
   113   1      4.1693558755613997      30.788892436642172      22.492730000000002
   114   1      4.1693558755613997      30.788892436642172      18.390070000000001
   115   1      4.1693558755613997      30.788892436642172      14.287419999999999
   116   1      3.2554746190381074      26.904571431115542      22.492730000000002
   117   1      3.2554746190381074      26.904571431115542      18.390070000000001
   118   1      64.719352505677406      42.898706469844392      11.292730000000001
   119   1      64.719352505677406      42.898706469844392      7.1900700000000004
   120   1      64.719352505677406      42.898706469844392      3.0874199999999998
   121   1      65.633306482189155      39.014402069669458      11.292730000000001
   122   1      65.633306482189155      39.014402069669458      7.1900700000000004
   123   1      65.633306482189155      39.014402069669458      3.0874199999999998
   124   1      5.0832371320846912      34.673213442168802      22.492730000000002
   125   1      5.0832371320846912      34.673213442168802      18.390070000000001
   126   1      5.0832371320846912      34.673213442168802      14.287419999999999
   127   1       6.910999645131275      42.441855453222061      14.287419999999999
   128   1        5.99711838860798      38.557534447695431      22.492730000000002
   129   1      17.192511205057645      68.718216082000168      22.492730000000002
   130   1      17.192511205057645      68.718216082000168      18.390070000000001
   131   1      17.192511205057645      68.718216082000168      14.287419999999999
   132   1     0.51381882490321251         15.251615858314      22.492730000000002
   133   1     0.51381882490321251         15.251615858314      18.390070000000001
   134   1     0.51381882490321251         15.251615858314      14.287419999999999
   135   1      1.4277023718198414      19.135927129668946      22.492730000000002
   136   1      1.4277023718198414      19.135927129668946      18.390070000000001
   137   1      1.4277023718198414      19.135927129668946      14.287419999999999
   138   1      63.805398529165657      46.783010870019325      11.292730000000001
   139   1      63.805398529165657      46.783010870019325      7.1900700000000004
   140   1      63.805398529165657      46.783010870019325      3.0874199999999998
   141   1      3.2554746190381074      26.904571431115542      14.287419999999999
   142   1      2.3415933625148164      23.020250425588912      22.492730000000002
   143   1      2.3415933625148164      23.020250425588912      18.390070000000001
   144   1      2.3415933625148164      23.020250425588912      14.287419999999999
   145   1      12.623095188269506      49.296608763973687      14.287419999999999
   146   1      14.450857701316092      57.065250775026946      22.492730000000002
   147   1      14.450857701316092      57.065250775026946      18.390070000000001
   148   1      14.450857701316092      57.065250775026946      14.287419999999999
   149   1      13.536976444792797      53.180929769500317      22.492730000000002
   150   1      13.536976444792797      53.180929769500317      18.390070000000001
   151   1      13.536976444792797      53.180929769500317      14.287419999999999
   152   1       15.36473895783938      60.949571780553569      22.492730000000002
   153   1       15.36473895783938      60.949571780553569      18.390070000000001
   154   1       15.36473895783938      60.949571780553569      14.287419999999999
   155   1      62.891444552653908      50.667315270194258      11.292730000000001
   156   1      62.891444552653908      50.667315270194258      7.1900700000000004
   157   1      62.891444552653908      50.667315270194258      3.0874199999999998
   158   1      16.278620214362672      64.833892786080199      22.492730000000002
   159   1      16.278620214362672      64.833892786080199      18.390070000000001
   160   1      16.278620214362672      64.833892786080199      14.287419999999999
   161   1      10.795320650657903      41.527974196698771      18.390070000000001
   162   1      10.795320650657903      41.527974196698771      14.287419999999999
   163   1      9.8814393941346115      37.643653191172142      22.492730000000002
   164   1      9.8814393941346115      37.643653191172142      18.390070000000001
   165   1      9.8814393941346115      37.643653191172142      14.287419999999999
   166   1      61.063536599630403      58.435924070544125      11.292730000000001
   167   1      61.063536599630403      58.435924070544125      7.1900700000000004
   168   1      61.063536599630403      58.435924070544125      3.0874199999999998
   169   1      61.977490576142152      54.551619670369192      11.292730000000001
   170   1      61.977490576142152      54.551619670369192      7.1900700000000004
   171   1      61.977490576142152      54.551619670369192      3.0874199999999998
   172   1      11.709213931746218       45.41228775844705      22.492730000000002
   173   1      11.709213931746218       45.41228775844705      18.390070000000001
   174   1      11.709213931746218       45.41228775844705      14.287419999999999
   175   1      12.623095188269506      49.296608763973687      22.492730000000002
   176   1      12.623095188269506      49.296608763973687      18.390070000000001
   177   1      7.1397956245647363      25.990690174592253      22.492730000000002
   178   1      7.1397956245647363      25.990690174592253      18.390070000000001
   179   1      7.1397956245647363      25.990690174592253      14.287419999999999
   180   1      6.2259046338697637      22.106366878672283      22.492730000000002
   181   1      6.2259046338697637      22.106366878672283      18.390070000000001
   182   1      6.2259046338697637      22.106366878672283      14.287419999999999
   183   1      8.0536768810880304      29.875011180118879      22.492730000000002
   184   1      8.0536768810880304      29.875011180118879      18.390070000000001
   185   1      8.0536768810880304      29.875011180118879      14.287419999999999
   186   1      60.149584913511994      62.320218736547375      11.292730000000001
   187   1      60.149584913511994      62.320218736547375      7.1900700000000004
   188   1      60.149584913511994      62.320218736547375      3.0874199999999998
   189   1      8.9675581376113236      33.759332185645512      22.492730000000002
   190   1      8.9675581376113236      33.759332185645512      18.390070000000001
   191   1      8.9675581376113236      33.759332185645512      14.287419999999999
   192   1      10.795320650657903      41.527974196698771      22.492730000000002
   193   1      1.6564960608599679       2.684771585210818      14.287419999999999
   194   1      3.4842585739065504      10.453413596264078      22.492730000000002
   195   1      3.4842585739065504      10.453413596264078      18.390070000000001
   196   1      3.4842585739065504      10.453413596264078      14.287419999999999
   197   1      2.5703773173832598      6.5690925907374478      22.492730000000002
   198   1      2.5703773173832598      6.5690925907374478      18.390070000000001
   199   1      2.5703773173832598      6.5690925907374478      14.287419999999999
   200   1      4.3981421208231799      14.337724867619023      22.492730000000002
   201   1      4.3981421208231799      14.337724867619023      18.390070000000001
   202   1      4.3981421208231799      14.337724867619023      14.287419999999999
   203   1      59.235630937000245      66.204523136722315      11.292730000000001
   204   1      59.235630937000245      66.204523136722315      7.1900700000000004
   205   1      59.235630937000245      66.204523136722315      3.0874199999999998
   206   1      5.3120233773464696      18.222045873145657      22.492730000000002
   207   1      5.3120233773464696      18.222045873145657      18.390070000000001
   208   1      5.3120233773464696      18.222045873145657      14.287419999999999
   209   1      18.335178706842722       56.15136951850365      18.390070000000001
   210   1      18.335178706842722       56.15136951850365      14.287419999999999
   211   1      20.162941219889305      63.920011529556916      22.492730000000002
   212   1      20.162941219889305      63.920011529556916      18.390070000000001
   213   1      20.162941219889305      63.920011529556916      14.287419999999999
   214   1      68.146677627203118      10.910327026104843      11.292730000000001
   215   1      68.146677627203118      10.910327026104843      7.1900700000000004
   216   1      68.146677627203118      10.910327026104843      3.0874199999999998
   217   1      69.060631603714867      7.0260226259299072      11.292730000000001
   218   1      69.060631603714867      7.0260226259299072      7.1900700000000004
   219   1      69.060631603714867      7.0260226259299072      3.0874199999999998
   220   1      21.076824766805927      67.804322800911862      22.492730000000002
   221   1      21.076824766805927      67.804322800911862      18.390070000000001
   222   1      21.076824766805927      67.804322800911862      14.287419999999999
   223   1      1.6564960608599679       2.684771585210818      22.492730000000002
   224   1      1.6564960608599679       2.684771585210818      18.390070000000001
   225   1      16.507416193796136      48.382727507450397      22.492730000000002
   226   1      16.507416193796136      48.382727507450397      18.390070000000001
   227   1      16.507416193796136      48.382727507450397      14.287419999999999
   228   1      17.421297450319429       52.26704851297702      22.492730000000002
   229   1      17.421297450319429       52.26704851297702      18.390070000000001
   230   1      17.421297450319429       52.26704851297702      14.287419999999999
   231   1       66.31877196457296      18.678926092283028      11.292730000000001
   232   1       66.31877196457296      18.678926092283028      7.1900700000000004
   233   1       66.31877196457296      18.678926092283028      3.0874199999999998
   234   1      67.232723650691369      14.794631426279778      11.292730000000001
   235   1      67.232723650691369      14.794631426279778      7.1900700000000004
   236   1      67.232723650691369      14.794631426279778      3.0874199999999998
   237   1      19.249059963366015      60.035690524030279      22.492730000000002
   238   1      19.249059963366015      60.035690524030279      18.390070000000001
   239   1      19.249059963366015      60.035690524030279      14.287419999999999
   240   1      18.335178706842722       56.15136951850365      22.492730000000002
   241   1      11.024116630091369      25.076808918068959      14.287419999999999
   242   1      12.851879143137952      32.845450929122215      22.492730000000002
   243   1      12.851879143137952      32.845450929122215      18.390070000000001
   244   1      12.851879143137952      32.845450929122215      14.287419999999999
   245   1      13.765762690054581      36.729762200477161      22.492730000000002
   246   1      13.765762690054581      36.729762200477161      18.390070000000001
   247   1      13.765762690054581      36.729762200477161      14.287419999999999
   248   1      65.404817988061211      22.563230492457965      11.292730000000001
   249   1      65.404817988061211      22.563230492457965      7.1900700000000004
   250   1      65.404817988061211      22.563230492457965      3.0874199999999998
   251   1      15.593525203101162      44.498404211530428      22.492730000000002
   252   1      15.593525203101162      44.498404211530428      18.390070000000001
   253   1      15.593525203101162      44.498404211530428      14.287419999999999
   254   1      14.679643946577871      40.614083206003798      22.492730000000002
   255   1      14.679643946577871      40.614083206003798      18.390070000000001
   256   1      14.679643946577871      40.614083206003798      14.287419999999999
   257   1      7.3685818698265191      9.5395226055691023      18.390070000000001
   258   1      7.3685818698265191      9.5395226055691023      14.287419999999999
   259   1       9.196344382873102      17.308164616622363      22.492730000000002
   260   1       9.196344382873102      17.308164616622363      18.390070000000001
   261   1       9.196344382873102      17.308164616622363      14.287419999999999
   262   1      10.110225639396393      21.192485622148993      22.492730000000002
   263   1      10.110225639396393      21.192485622148993      18.390070000000001
   264   1      10.110225639396393      21.192485622148993      14.287419999999999
   265   1      64.490864011549462      26.447534892632898      11.292730000000001
   266   1      64.490864011549462      26.447534892632898      7.1900700000000004
   267   1      64.490864011549462      26.447534892632898      3.0874199999999998
   268   1      11.937997886614657      28.961129923595589      22.492730000000002
   269   1      11.937997886614657      28.961129923595589      18.390070000000001
   270   1      11.937997886614657      28.961129923595589      14.287419999999999
   271   1      11.024116630091369      25.076808918068959      22.492730000000002
   272   1      11.024116630091369      25.076808918068959      18.390070000000001
   273   1      5.5408073322149143      1.7708880382941894      14.287419999999999
   274   1      6.4546983229098895      5.6552113342141572      22.492730000000002
   275   1      6.4546983229098895      5.6552113342141572      18.390070000000001
   276   1      6.4546983229098895      5.6552113342141572      14.287419999999999
   277   1      5.5408073322149143      1.7708880382941894      22.492730000000002
   278   1      5.5408073322149143      1.7708880382941894      18.390070000000001
   279   1      62.662956058525964      34.216143692982769      11.292730000000001
   280   1      62.662956058525964      34.216143692982769      7.1900700000000004
   281   1      62.662956058525964      34.216143692982769      3.0874199999999998
   282   1      63.576910035037713      30.331839292807832      11.292730000000001
   283   1      63.576910035037713      30.331839292807832      7.1900700000000004
   284   1      63.576910035037713      30.331839292807832      3.0874199999999998
   285   1      8.2824631263498087      13.423843611095734      22.492730000000002
   286   1      8.2824631263498087      13.423843611095734      18.390070000000001
   287   1      8.2824631263498087      13.423843611095734      14.287419999999999
   288   1      7.3685818698265191      9.5395226055691023      22.492730000000002
   289   1      20.391727465151082      47.468843960533761      14.287419999999999
   290   1      22.219499712369352       55.23748826198036      22.492730000000002
   291   1      22.219499712369352       55.23748826198036      18.390070000000001
   292   1      22.219499712369352       55.23748826198036      14.287419999999999
   293   1      23.133383259285974      59.121799533335306      22.492730000000002
   294   1      23.133383259285974      59.121799533335306      18.390070000000001
   295   1      23.133383259285974      59.121799533335306      14.287419999999999
   296   1      61.749002082014215      38.100448093157702      11.292730000000001
   297   1      61.749002082014215      38.100448093157702      7.1900700000000004
   298   1      61.749002082014215      38.100448093157702      3.0874199999999998
   299   1      24.961145772332564      66.890441544388565      22.492730000000002
   300   1      24.961145772332564      66.890441544388565      18.390070000000001
   301   1      24.961145772332564      66.890441544388565      14.287419999999999
   302   1      24.047264515809271      63.006120538861936      22.492730000000002
   303   1      24.047264515809271      63.006120538861936      18.390070000000001
   304   1      24.047264515809271      63.006120538861936      14.287419999999999
   305   1      16.736202439057919      31.931559938427242      18.390070000000001
   306   1      16.736202439057919      31.931559938427242      14.287419999999999
   307   1      18.563964952104499      39.700201949480508      22.492730000000002
   308   1      18.563964952104499      39.700201949480508      18.390070000000001
   309   1      18.563964952104499      39.700201949480508      14.287419999999999
   310   1      19.477846208627792      43.584522955007138      22.492730000000002
   311   1      19.477846208627792      43.584522955007138      18.390070000000001
   312   1      19.477846208627792      43.584522955007138      14.287419999999999
   313   1      60.835048105502466      41.984752493332635      11.292730000000001
   314   1      60.835048105502466      41.984752493332635      7.1900700000000004
   315   1      60.835048105502466      41.984752493332635      3.0874199999999998
   316   1      21.305618455846062       51.35316725645373      22.492730000000002
   317   1      21.305618455846062       51.35316725645373      18.390070000000001
   318   1      21.305618455846062       51.35316725645373      14.287419999999999
   319   1      20.391727465151082      47.468843960533761      22.492730000000002
   320   1      20.391727465151082      47.468843960533761      18.390070000000001
   321   1      14.908427901446313       24.16292537115233      22.492730000000002
   322   1      14.908427901446313       24.16292537115233      18.390070000000001
   323   1      14.908427901446313       24.16292537115233      14.287419999999999
   324   1      15.822318892141288      28.047248667072299      22.492730000000002
   325   1      15.822318892141288      28.047248667072299      18.390070000000001
   326   1      15.822318892141288      28.047248667072299      14.287419999999999
   327   1      59.007140152478968      49.753361293682502      11.292730000000001
   328   1      59.007140152478968      49.753361293682502      7.1900700000000004
   329   1      59.007140152478968      49.753361293682502      3.0874199999999998
   330   1      59.921094128990717      45.869056893507569      11.292730000000001
   331   1      59.921094128990717      45.869056893507569      7.1900700000000004
   332   1      59.921094128990717      45.869056893507569      3.0874199999999998
   333   1      17.650083695581209      35.815880943953871      22.492730000000002
   334   1      17.650083695581209      35.815880943953871      18.390070000000001
   335   1      17.650083695581209      35.815880943953871      14.287419999999999
   336   1      16.736202439057919      31.931559938427242      22.492730000000002
   337   1       9.425128337741544     0.85700678177089806      14.287419999999999
   338   1      11.252902875353147      8.6256413490458108      22.492730000000002
   339   1      11.252902875353147      8.6256413490458108      18.390070000000001
   340   1      11.252902875353147      8.6256413490458108      14.287419999999999
   341   1      12.166784131876438      12.509962354572441      22.492730000000002
   342   1      12.166784131876438      12.509962354572441      18.390070000000001
   343   1      12.166784131876438      12.509962354572441      14.287419999999999
   344   1      58.093186175967212      53.637665693857443      11.292730000000001
   345   1      58.093186175967212      53.637665693857443      7.1900700000000004
   346   1      58.093186175967212      53.637665693857443      3.0874199999999998
   347   1      13.994546644923025      20.278604365625704      22.492730000000002
   348   1      13.994546644923025      20.278604365625704      18.390070000000001
   349   1      13.994546644923025      20.278604365625704      14.287419999999999
   350   1       13.08066538839973       16.39428336009907      22.492730000000002
   351   1       13.08066538839973       16.39428336009907      18.390070000000001
   352   1       13.08066538839973       16.39428336009907      14.287419999999999
   353   1      27.017704264812608      58.207918276812016      14.287419999999999
   354   1      26.103823008289318      54.323597271285387      22.492730000000002
   355   1      27.931585521335901      62.092239282338646      22.492730000000002
   356   1      27.931585521335901      62.092239282338646      18.390070000000001
   357   1      27.931585521335901      62.092239282338646      14.287419999999999