(written by ASE)

8952 atoms
3 atom types

0.0      77.067021126639759  xlo xhi
0.0      77.067021126639759  ylo yhi
0.0                      50  zlo zhi

Masses

     1       137.3269999646734 # Ba
     2      15.998999995884349 # O
     3      47.866999987686484 # Ti

Atoms # atomic

     1   1      20.608473834831432       72.26361234666841      18.390070000000001
     2   1      20.608473834831432       72.26361234666841      14.287419999999999
     3   1      32.903274420776469      50.258856230947757      11.292730000000001
     4   1      32.903274420776469      50.258856230947757      7.1900700000000004
     5   1      31.456976109188989      53.977909032172711      11.292730000000001
     6   1      31.456976109188989      53.977909032172711      7.1900700000000004
     7   1      31.456976109188989      53.977909032172711      3.0874199999999998
     8   1      32.903274420776469      50.258856230947757      3.0874199999999998
     9   1      34.349572732363953      46.539803429722802      11.292730000000001
    10   1      34.349572732363953      46.539803429722802      7.1900700000000004
    11   1      34.349572732363953      46.539803429722802      3.0874199999999998
    12   1      28.564383110476633      61.416005314575912      11.292730000000001
    13   1      28.564383110476633      61.416005314575912      7.1900700000000004
    14   1      28.564383110476633      61.416005314575912      3.0874199999999998
    15   1      30.010677797601506      57.696961833397673      11.292730000000001
    16   1      30.010677797601506      57.696961833397673      7.1900700000000004
    17   1      21.022458400981495      29.287901961456754      14.287419999999999
    18   1      23.914918330137969      36.726063484186959      22.492730000000002
    19   1      23.914918330137969      36.726063484186959      18.390070000000001
    20   1      23.914918330137969      36.726063484186959      14.287419999999999
    21   1      22.468688365559728      33.006982722821853      22.492730000000002
    22   1      75.259144225791744      62.449081232722506      7.1900700000000004
    23   1      75.259144225791744      62.449081232722506      3.0874199999999998
    24   1      76.705442537379227      58.730028431497551      11.292730000000001
    25   1      76.705442537379227      58.730028431497551      7.1900700000000004
    26   1      76.705442537379227      58.730028431497551      3.0874199999999998
    27   1      25.361151919178816       40.44513492550535      22.492730000000002
    28   1      25.361151919178816       40.44513492550535      18.390070000000001
    29   1      25.361151919178816       40.44513492550535      14.287419999999999
    30   1      76.085600403841738      71.333485146759898      11.292730000000001
    31   1      76.085600403841738      71.333485146759898      7.1900700000000004
    32   1      20.608473834831432       72.26361234666841      22.492730000000002
    33   1       10.89882845549929      3.2543609675785699      14.287419999999999
    34   1      13.791301329165089      10.692516794724671      22.492730000000002
    35   1      13.791301329165089      10.692516794724671      18.390070000000001
    36   1      13.791301329165089      10.692516794724671      14.287419999999999
    37   1      74.432688047741763      53.564677318685114      11.292730000000001
    38   1      74.432688047741763      53.564677318685114      7.1900700000000004
    39   1      74.432688047741763      53.564677318685114      3.0874199999999998
    40   1      75.878986359329247      49.845624517460152      11.292730000000001
    41   1      75.878986359329247      49.845624517460152      7.1900700000000004
    42   1      75.878986359329247      49.845624517460152      3.0874199999999998
    43   1      16.683761258321564      18.130678317454876      22.492730000000002
    44   1      16.683761258321564      18.130678317454876      18.390070000000001
    45   1      16.683761258321564      18.130678317454876      14.287419999999999
    46   1      15.237531293743329      14.411597556089776      22.492730000000002
    47   1      15.237531293743329      14.411597556089776      18.390070000000001
    48   1      15.237531293743329      14.411597556089776      14.287419999999999
    49   1      42.096322555182596      72.470607477535495      18.390070000000001
    50   1      42.096322555182596      72.470607477535495      14.287419999999999
    51   1       43.54255614422344      76.189678918853886      22.492730000000002
    52   1       43.54255614422344      76.189678918853886      18.390070000000001
    53   1       43.54255614422344      76.189678918853886      14.287419999999999
    54   1      71.540091424566796      61.002782921135022      11.292730000000001
    55   1      71.540091424566796      61.002782921135022      7.1900700000000004
    56   1      71.540091424566796      61.002782921135022      3.0874199999999998
    57   1       72.98638973615428      57.283730119910068      11.292730000000001
    58   1       72.98638973615428      57.283730119910068      7.1900700000000004
    59   1       72.98638973615428      57.283730119910068      3.0874199999999998
    60   1      12.345058420077525      6.9734417289436719      22.492730000000002
    61   1      12.345058420077525      6.9734417289436719      18.390070000000001
    62   1      12.345058420077525      6.9734417289436719      14.287419999999999
    63   1       10.89882845549929      3.2543609675785699      22.492730000000002
    64   1       10.89882845549929      3.2543609675785699      18.390070000000001
    65   1       39.20386262602613      65.032445954805297      22.492730000000002
    66   1       39.20386262602613      65.032445954805297      18.390070000000001
    67   1       39.20386262602613      65.032445954805297      14.287419999999999
    68   1      37.757629036985271      61.313374513486906      22.492730000000002
    69   1      37.757629036985271      61.313374513486906      18.390070000000001
    70   1      37.757629036985271      61.313374513486906      14.287419999999999
    71   1      40.650092590604359      68.751526716170389      22.492730000000002
    72   1      40.650092590604359      68.751526716170389      18.390070000000001
    73   1      40.650092590604359      68.751526716170389      14.287419999999999
    74   1      4.2859265203768864      74.329464388125587      22.492730000000002
    75   1      4.2859265203768864      74.329464388125587      18.390070000000001
    76   1      4.2859265203768864      74.329464388125587      14.287419999999999
    77   1      28.253624792844612      47.883290752651448      22.492730000000002
    78   1      28.253624792844612      47.883290752651448      18.390070000000001
    79   1      28.253624792844612      47.883290752651448      14.287419999999999
    80   1      42.096322555182596      72.470607477535495      22.492730000000002
    81   1      29.699854757422855      51.602371514016554      14.287419999999999
    82   1      34.865159787782083      53.875209366294094      18.390070000000001
    83   1      34.865159787782083      53.875209366294094      14.287419999999999
    84   1      33.418926198741239      50.156137924975702      22.492730000000002
    85   1      33.418926198741239      50.156137924975702      18.390070000000001
    86   1      33.418926198741239      50.156137924975702      14.287419999999999
    87   1      68.647494801391829      68.440888523584931      11.292730000000001
    88   1      68.647494801391829      68.440888523584931      7.1900700000000004
    89   1      68.647494801391829      68.440888523584931      3.0874199999999998
    90   1      70.093793112979313       64.72183572235997      11.292730000000001
    91   1      70.093793112979313       64.72183572235997      7.1900700000000004
    92   1      70.093793112979313       64.72183572235997      3.0874199999999998
    93   1       36.31138975236032      57.594290127659193      22.492730000000002
    94   1       36.31138975236032      57.594290127659193      18.390070000000001
    95   1       36.31138975236032      57.594290127659193      14.287419999999999
    96   1      34.865159787782083      53.875209366294094      22.492730000000002
    97   1      29.080232680543922      38.998904960927113      14.287419999999999
    98   1      27.634002715965682      35.279824199562007      22.492730000000002
    99   1      31.972696234163006      46.437057163610596      22.492730000000002
   100   1      31.972696234163006      46.437057163610596      18.390070000000001
   101   1      31.972696234163006      46.437057163610596      14.287419999999999
   102   1      30.526462645122152      42.717985722292212      22.492730000000002
   103   1      30.526462645122152      42.717985722292212      18.390070000000001
   104   1      30.526462645122152      42.717985722292212      14.287419999999999
   105   1      67.201196489804346      72.159941324809893      11.292730000000001
   106   1      67.201196489804346      72.159941324809893      7.1900700000000004
   107   1      67.201196489804346      72.159941324809893      3.0874199999999998
   108   1      31.146084722001085      55.321452275381652      22.492730000000002
   109   1      31.146084722001085      55.321452275381652      18.390070000000001
   110   1      31.146084722001085      55.321452275381652      14.287419999999999
   111   1      29.699854757422855      51.602371514016554      22.492730000000002
   112   1      29.699854757422855      51.602371514016554      18.390070000000001
   113   1       23.29530557330575       24.12260055556013      14.287419999999999
   114   1      75.052539501325967      40.961224227885367      7.1900700000000004
   115   1      75.052539501325967      40.961224227885367      3.0874199999999998
   116   1       76.49883781291345      37.242171426660413      11.292730000000001
   117   1       76.49883781291345      37.242171426660413      7.1900700000000004
   118   1       76.49883781291345      37.242171426660413      3.0874199999999998
   119   1       65.75490180267947      75.878984805988125      11.292730000000001
   120   1       65.75490180267947      75.878984805988125      7.1900700000000004
   121   1       65.75490180267947      75.878984805988125      3.0874199999999998
   122   1      27.634002715965682      35.279824199562007      18.390070000000001
   123   1      27.634002715965682      35.279824199562007      14.287419999999999
   124   1      26.187769126924834      31.560752758243623      22.492730000000002
   125   1      26.187769126924834      31.560752758243623      18.390070000000001
   126   1      26.187769126924834      31.560752758243623      14.287419999999999
   127   1      29.080232680543922      38.998904960927113      22.492730000000002
   128   1      29.080232680543922      38.998904960927113      18.390070000000001
   129   1      20.402836324102562      16.684435408367314      22.492730000000002
   130   1      20.402836324102562      16.684435408367314      18.390070000000001
   131   1      20.402836324102562      16.684435408367314      14.287419999999999
   132   1      32.592318311041936      59.040523716700037      22.492730000000002
   133   1      32.592318311041936      59.040523716700037      18.390070000000001
   134   1      32.592318311041936      59.040523716700037      14.287419999999999
   135   1         72.159942878151      48.399329830335283      3.0874199999999998
   136   1      73.606241189738483      44.680277029110329      11.292730000000001
   137   1      73.606241189738483      44.680277029110329      7.1900700000000004
   138   1      73.606241189738483      44.680277029110329      3.0874199999999998
   139   1      75.052539501325967      40.961224227885367      11.292730000000001
   140   1      24.741539162346601      27.841671996878514      22.492730000000002
   141   1      24.741539162346601      27.841671996878514      18.390070000000001
   142   1      24.741539162346601      27.841671996878514      14.287419999999999
   143   1       23.29530557330575       24.12260055556013      22.492730000000002
   144   1       23.29530557330575       24.12260055556013      18.390070000000001
   145   1      17.510372770483475      9.2462832056838238      18.390070000000001
   146   1      17.510372770483475      9.2462832056838238      14.287419999999999
   147   1      16.064139181442627      5.5272117643654362      22.492730000000002
   148   1      16.064139181442627      5.5272117643654362      18.390070000000001
   149   1      16.064139181442627      5.5272117643654362      14.287419999999999
   150   1      18.956602735061718      12.965363967048926      22.492730000000002
   151   1      18.956602735061718      12.965363967048926      18.390070000000001
   152   1      18.956602735061718      12.965363967048926      14.287419999999999
   153   1      70.713644566563516      52.118382631560237      11.292730000000001
   154   1      70.713644566563516      52.118382631560237      7.1900700000000004
   155   1      70.713644566563516      52.118382631560237      3.0874199999999998
   156   1         72.159942878151      48.399329830335283      11.292730000000001
   157   1         72.159942878151      48.399329830335283      7.1900700000000004
   158   1      21.849066288680799      20.403516169732416      22.492730000000002
   159   1      21.849066288680799      20.403516169732416      18.390070000000001
   160   1      21.849066288680799      20.403516169732416      14.287419999999999
   161   1      34.038548275620172      62.759604478065135      22.492730000000002
   162   1      34.038548275620172      62.759604478065135      18.390070000000001
   163   1      34.038548275620172      62.759604478065135      14.287419999999999
   164   1      47.261636905588546      74.743448954275649      22.492730000000002
   165   1      47.261636905588546      74.743448954275649      18.390070000000001
   166   1      47.261636905588546      74.743448954275649      14.287419999999999
   167   1      69.267346254976033      55.837435432785192      3.0874199999999998
   168   1      2.8396965557986507      70.610383626760481      22.492730000000002
   169   1      2.8396965557986507      70.610383626760481      18.390070000000001
   170   1      2.8396965557986507      70.610383626760481      14.287419999999999
   171   1      1.3934665912204178      66.891302865395375      22.492730000000002
   172   1      1.3934665912204178      66.891302865395375      18.390070000000001
   173   1      14.617909216864392      1.8081310030003339      22.492730000000002
   174   1      14.617909216864392      1.8081310030003339      18.390070000000001
   175   1      14.617909216864392      1.8081310030003339      14.287419999999999
   176   1      17.510372770483475      9.2462832056838238      22.492730000000002
   177   1      41.476700478303663      59.867140924446055      14.287419999999999
   178   1      40.030470513725419      56.148060163080956      22.492730000000002
   179   1      44.369164031922743      67.305293127129545      22.492730000000002
   180   1      44.369164031922743      67.305293127129545      18.390070000000001
   181   1      44.369164031922743      67.305293127129545      14.287419999999999
   182   1      42.922934067344514      63.586212365764446      22.492730000000002
   183   1      42.922934067344514      63.586212365764446      18.390070000000001
   184   1      42.922934067344514      63.586212365764446      14.287419999999999
   185   1       67.82104794338855      59.556488234010146      11.292730000000001
   186   1       67.82104794338855      59.556488234010146      7.1900700000000004
   187   1       67.82104794338855      59.556488234010146      3.0874199999999998
   188   1      69.267346254976033      55.837435432785192      11.292730000000001
   189   1      69.267346254976033      55.837435432785192      7.1900700000000004
   190   1      45.815397620963594      71.024364568447936      22.492730000000002
   191   1      45.815397620963594      71.024364568447936      18.390070000000001
   192   1      45.815397620963594      71.024364568447936      14.287419999999999
   193   1      35.484781864661016      66.478675919383534      22.492730000000002
   194   1      35.484781864661016      66.478675919383534      18.390070000000001
   195   1      35.484781864661016      66.478675919383534      14.287419999999999
   196   1      64.928451320213583      66.994593836460055      11.292730000000001
   197   1      64.928451320213583      66.994593836460055      7.1900700000000004
   198   1      64.928451320213583      66.994593836460055      3.0874199999999998
   199   1      66.374749631801066      63.275541035235101      11.292730000000001
   200   1      66.374749631801066      63.275541035235101      7.1900700000000004
   201   1      66.374749631801066      63.275541035235101      3.0874199999999998
   202   1      40.030470513725419      56.148060163080956      18.390070000000001
   203   1      40.030470513725419      56.148060163080956      14.287419999999999
   204   1      38.584240549147196       52.42897940171585      22.492730000000002
   205   1      38.584240549147196       52.42897940171585      18.390070000000001
   206   1      38.584240549147196       52.42897940171585      14.287419999999999
   207   1      41.476700478303663      59.867140924446055      22.492730000000002
   208   1      41.476700478303663      59.867140924446055      18.390070000000001
   209   1      34.245543406487258      41.271755757713976      22.492730000000002
   210   1      34.245543406487258      41.271755757713976      18.390070000000001
   211   1      34.245543406487258      41.271755757713976      14.287419999999999
   212   1      32.799313441909021      37.552674996348877      22.492730000000002
   213   1      37.138006960106338      48.709907960397459      22.492730000000002
   214   1      37.138006960106338      48.709907960397459      18.390070000000001
   215   1      37.138006960106338      48.709907960397459      14.287419999999999
   216   1      35.691776995528102       44.99082719903236      22.492730000000002
   217   1      35.691776995528102       44.99082719903236      18.390070000000001
   218   1      35.691776995528102       44.99082719903236      14.287419999999999
   219   1      63.482153008626099      70.713646637685017      11.292730000000001
   220   1      63.482153008626099      70.713646637685017      7.1900700000000004
   221   1      63.482153008626099      70.713646637685017      3.0874199999999998
   222   1      36.931011829239253      70.197756680748626      22.492730000000002
   223   1      36.931011829239253      70.197756680748626      18.390070000000001
   224   1      36.931011829239253      70.197756680748626      14.287419999999999
   225   1      38.377241793817497      73.916837442113732      18.390070000000001
   226   1      38.377241793817497      73.916837442113732      14.287419999999999
   227   1      29.906840568243219      30.114519169202772      22.492730000000002
   228   1      29.906840568243219      30.114519169202772      18.390070000000001
   229   1      29.906840568243219      30.114519169202772      14.287419999999999
   230   1      28.460610603664989       26.39543840783767      22.492730000000002
   231   1      28.460610603664989       26.39543840783767      18.390070000000001
   232   1      28.460610603664989       26.39543840783767      14.287419999999999
   233   1       62.03585832150123      74.432690118863263      11.292730000000001
   234   1       62.03585832150123      74.432690118863263      7.1900700000000004
   235   1       62.03585832150123      74.432690118863263      3.0874199999999998
   236   1      32.799313441909021      37.552674996348877      18.390070000000001
   237   1      32.799313441909021      37.552674996348877      14.287419999999999
   238   1      31.353074157284073      33.833590610521163      22.492730000000002
   239   1      31.353074157284073      33.833590610521163      18.390070000000001
   240   1      31.353074157284073      33.833590610521163      14.287419999999999
   241   1      21.229453531848581      7.8000532411055881      22.492730000000002
   242   1      21.229453531848581      7.8000532411055881      18.390070000000001
   243   1      21.229453531848581      7.8000532411055881      14.287419999999999
   244   1      24.121917085467665      15.238205443789077      22.492730000000002
   245   1      24.121917085467665      15.238205443789077      18.390070000000001
   246   1      24.121917085467665      15.238205443789077      14.287419999999999
   247   1      75.672378010400848      28.357776832669732      7.1900700000000004
   248   1      75.672378010400848      28.357776832669732      3.0874199999999998
   249   1      1.3934665912204178      66.891302865395375      14.287419999999999
   250   1      27.014377014624138      22.676366966519282      22.492730000000002
   251   1      27.014377014624138      22.676366966519282      18.390070000000001
   252   1      27.014377014624138      22.676366966519282      14.287419999999999
   253   1      25.568147050045901       18.95728620515418      22.492730000000002
   254   1      25.568147050045901       18.95728620515418      18.390070000000001
   255   1      25.568147050045901       18.95728620515418      14.287419999999999
   256   1      38.377241793817497      73.916837442113732      22.492730000000002
   257   1      19.783223567270348      4.0809724797404856      22.492730000000002
   258   1      19.783223567270348      4.0809724797404856      18.390070000000001
   259   1      19.783223567270348      4.0809724797404856      14.287419999999999
   260   1      18.336989978229497      0.3619010384220967      22.492730000000002
   261   1      18.336989978229497      0.3619010384220967      18.390070000000001
   262   1      18.336989978229497      0.3619010384220967      14.287419999999999
   263   1      72.779785011688489      35.795873115072929      11.292730000000001
   264   1      72.779785011688489      35.795873115072929      7.1900700000000004
   265   1      72.779785011688489      35.795873115072929      3.0874199999999998
   266   1      74.226083323275972      32.076820313847975      11.292730000000001
   267   1      74.226083323275972      32.076820313847975      7.1900700000000004
   268   1      74.226083323275972      32.076820313847975      3.0874199999999998
   269   1      75.672378010400848      28.357776832669732      11.292730000000001
   270   1      22.675683496426817       11.51913400247069      22.492730000000002
   271   1      22.675683496426817       11.51913400247069      18.390070000000001
   272   1      22.675683496426817       11.51913400247069      14.287419999999999
   273   1      49.534478382328693        69.5781346038697      22.492730000000002
   274   1      49.534478382328693        69.5781346038697      18.390070000000001
   275   1      49.534478382328693        69.5781346038697      14.287419999999999
   276   1      48.088244793287849      65.859063162551308      22.492730000000002
   277   1      48.088244793287849      65.859063162551308      18.390070000000001
   278   1      71.333486700101005      39.514925916297884      11.292730000000001
   279   1      71.333486700101005      39.514925916297884      7.1900700000000004
   280   1      71.333486700101005      39.514925916297884      3.0874199999999998
   281   1      52.426938311485173      77.016296126599897      22.492730000000002
   282   1      52.426938311485173      77.016296126599897      18.390070000000001
   283   1      52.426938311485173      77.016296126599897      14.287419999999999
   284   1      50.980708346906937      73.297215365234806      22.492730000000002
   285   1      50.980708346906937      73.297215365234806      18.390070000000001
   286   1      50.980708346906937      73.297215365234806      14.287419999999999
   287   1      5.7335234251400555     0.98152311530103109      18.390070000000001
   288   1      5.7335234251400555     0.98152311530103109      14.287419999999999
   289   1      45.195784864131376      58.420901639821103      22.492730000000002
   290   1      45.195784864131376      58.420901639821103      18.390070000000001
   291   1      45.195784864131376      58.420901639821103      14.287419999999999
   292   1      43.749551275090532      54.701830198502719      22.492730000000002
   293   1      43.749551275090532      54.701830198502719      18.390070000000001
   294   1      43.749551275090532      54.701830198502719      14.287419999999999
   295   1      68.440890076926038        46.9530315187478      11.292730000000001
   296   1      68.440890076926038        46.9530315187478      7.1900700000000004
   297   1      68.440890076926038        46.9530315187478      3.0874199999999998
   298   1      69.887188388513522      43.233978717522845      11.292730000000001
   299   1      69.887188388513522      43.233978717522845      7.1900700000000004
   300   1      69.887188388513522      43.233978717522845      3.0874199999999998
   301   1      48.088244793287849      65.859063162551308      14.287419999999999
   302   1       46.64201482870962      62.139982401186209      22.492730000000002
   303   1       46.64201482870962      62.139982401186209      18.390070000000001
   304   1       46.64201482870962      62.139982401186209      14.287419999999999
   305   1      39.410848436846486      43.544593609991516      18.390070000000001
   306   1      39.410848436846486      43.544593609991516      14.287419999999999
   307   1      7.1797570141809031      4.7005945566194187      22.492730000000002
   308   1      7.1797570141809031      4.7005945566194187      18.390070000000001
   309   1      7.1797570141809031      4.7005945566194187      14.287419999999999
   310   1      5.7335234251400555     0.98152311530103109      22.492730000000002
   311   1      40.857078401424729      47.263674371356615      22.492730000000002
   312   1      40.857078401424729      47.263674371356615      18.390070000000001
   313   1      65.548293453751072      54.391137121197708      3.0874199999999998
   314   1      66.994591765338555      50.672084319972754      11.292730000000001
   315   1      66.994591765338555      50.672084319972754      7.1900700000000004
   316   1      66.994591765338555      50.672084319972754      3.0874199999999998
   317   1      42.303321310512288       50.98274943713762      22.492730000000002
   318   1      42.303321310512288       50.98274943713762      18.390070000000001
   319   1      42.303321310512288       50.98274943713762      14.287419999999999
   320   1      8.6259869787591388      8.4196753179845203      14.287419999999999
   321   1      35.072154918649169      32.387360645942927      18.390070000000001
   322   1      35.072154918649169      32.387360645942927      14.287419999999999
   323   1      9.4512408707828346      76.602305864865741      22.492730000000002
   324   1      9.4512408707828346      76.602305864865741      18.390070000000001
   325   1      9.4512408707828346      76.602305864865741      14.287419999999999
   326   1      8.0050072817419888      72.883234423547336      22.492730000000002
   327   1      65.548293453751072      54.391137121197708      11.292730000000001
   328   1      65.548293453751072      54.391137121197708      7.1900700000000004
   329   1      37.964618472268263       39.82551284862641      22.492730000000002
   330   1      37.964618472268263       39.82551284862641      18.390070000000001
   331   1      37.964618472268263       39.82551284862641      14.287419999999999
   332   1      36.518384883227405      36.106441407308026      22.492730000000002
   333   1      36.518384883227405      36.106441407308026      18.390070000000001
   334   1      36.518384883227405      36.106441407308026      14.287419999999999
   335   1      40.857078401424729      47.263674371356615      14.287419999999999
   336   1      39.410848436846486      43.544593609991516      22.492730000000002
   337   1      32.179691365030088      24.949208443259433      22.492730000000002
   338   1      32.179691365030088      24.949208443259433      18.390070000000001
   339   1      32.179691365030088      24.949208443259433      14.287419999999999
   340   1      62.655696830576105      61.829242723647617      3.0874199999999998
   341   1      64.101995142163588      58.110189922422663      11.292730000000001
   342   1      64.101995142163588      58.110189922422663      7.1900700000000004
   343   1      64.101995142163588      58.110189922422663      3.0874199999999998
   344   1      33.625921329608325      28.668289204624536      22.492730000000002
   345   1      10.072220567799988      12.138746759302908      22.492730000000002
   346   1      10.072220567799988      12.138746759302908      18.390070000000001
   347   1      10.072220567799988      12.138746759302908      14.287419999999999
   348   1      8.6259869787591388      8.4196753179845203      22.492730000000002
   349   1      8.6259869787591388      8.4196753179845203      18.390070000000001
   350   1      33.625921329608325      28.668289204624536      18.390070000000001
   351   1      33.625921329608325      28.668289204624536      14.287419999999999
   352   1      35.072154918649169      32.387360645942927      22.492730000000002
   353   1      27.840997846832767      13.791975479210841      22.492730000000002
   354   1      27.840997846832767      13.791975479210841      18.390070000000001
   355   1      27.840997846832767      13.791975479210841      14.287419999999999
   356   1      26.394754937745205      10.072900413429842      22.492730000000002
   357   1      26.394754937745205      10.072900413429842      18.390070000000001