(written by ASE)

5496 atoms
3 atom types

0.0       60.38539309202136  xlo xhi
0.0       60.38539309202136  ylo yhi
0.0                      50  zlo zhi

Masses

     1       137.3269999646734 # Ba
     2      15.998999995884349 # O
     3      47.866999987686484 # Ti

Atoms # atomic

     1   1      28.017242302821398      38.960447887752714      11.292730000000001
     2   1      28.017242302821398      38.960447887752714      7.1900700000000004
     3   1      28.017242302821398      38.960447887752714      3.0874199999999998
     4   1      26.962475372067804      46.871199868404659      11.292730000000001
     5   1      26.962475372067804      46.871199868404659      7.1900700000000004
     6   1      26.962475372067804      46.871199868404659      3.0874199999999998
     7   1      27.489858837444601       42.91582387807869      11.292730000000001
     8   1      28.544625768198195      35.005071897426745      11.292730000000001
     9   1      28.544625768198195      35.005071897426745      7.1900700000000004
    10   1      28.544625768198195      35.005071897426745      3.0874199999999998
    11   1       26.43509322832821      50.826565946451623      11.292730000000001
    12   1       26.43509322832821      50.826565946451623      7.1900700000000004
    13   1       26.43509322832821      50.826565946451623      3.0874199999999998
    14   1      25.380326297574616      58.737317927103575      7.1900700000000004
    15   1      25.380326297574616      58.737317927103575      3.0874199999999998
    16   1      25.907709762951413      54.781941936777599      11.292730000000001
    17   1      3.7582346380708063      50.826527618972797      18.390070000000001
    18   1      4.8131066389818704      58.737257131792326      22.492730000000002
    19   1      4.8131066389818704      58.737257131792326      18.390070000000001
    20   1      4.8131066389818704      58.737257131792326      14.287419999999999
    21   1     0.33030158679567045      55.309322758879993      22.492730000000002
    22   1     0.33030158679567045      55.309322758879993      18.390070000000001
    23   1     0.33030158679567045      55.309322758879993      14.287419999999999
    24   1      57.550707773280173      59.001008338154769      11.292730000000001
    25   1      57.550707773280173      59.001008338154769      7.1900700000000004
    26   1      57.550707773280173      59.001008338154769      3.0874199999999998
    27   1      59.660240313150162      43.179514289129884      11.292730000000001
    28   1      59.660240313150162      43.179514289129884      7.1900700000000004
    29   1      59.660240313150162      43.179514289129884      3.0874199999999998
    30   1      60.187623778526955      39.224138298803915      11.292730000000001
    31   1      60.187623778526955      39.224138298803915      7.1900700000000004
    32   1      27.489858837444601       42.91582387807869      3.0874199999999998
    33   1      1.1210734691232558       31.04967608254276      14.287419999999999
    34   1      57.814398184331374      26.830626862449201      11.292730000000001
    35   1      57.814398184331374      26.830626862449201      7.1900700000000004
    36   1      57.814398184331374      26.830626862449201      3.0874199999999998
    37   1      58.341781649708167      22.875250872123232      11.292730000000001
    38   1      58.341781649708167      22.875250872123232      7.1900700000000004
    39   1      58.341781649708167      22.875250872123232      3.0874199999999998
    40   1      58.869165115084968      18.919874881797259      11.292730000000001
    41   1      2.1759441483971202      38.960415507641294      22.492730000000002
    42   1      2.1759441483971202      38.960415507641294      18.390070000000001
    43   1      2.1759441483971202      38.960415507641294      14.287419999999999
    44   1      1.6485131040810908      35.005051412050136      22.492730000000002
    45   1      1.6485131040810908      35.005051412050136      18.390070000000001
    46   1      2.7033738710759487      42.915789515511463      22.492730000000002
    47   1      2.7033738710759487      42.915789515511463      18.390070000000001
    48   1      2.7033738710759487      42.915789515511463      14.287419999999999
    49   1      8.2410396902570042       54.25446199188513      14.287419999999999
    50   1      8.7684707345730324      58.209826087476294      22.492730000000002
    51   1      8.7684707345730324      58.209826087476294      18.390070000000001
    52   1      8.7684707345730324      58.209826087476294      14.287419999999999
    53   1    0.066211380491198138      23.138947891360431      22.492730000000002
    54   1    0.066211380491198138      23.138947891360431      18.390070000000001
    55   1    0.066211380491198138      23.138947891360431      14.287419999999999
    56   1       57.28701471895458      30.786002852775177      11.292730000000001
    57   1       57.28701471895458      30.786002852775177      7.1900700000000004
    58   1       57.28701471895458      30.786002852775177      3.0874199999999998
    59   1     0.59364242480722695      27.094311986951595      22.492730000000002
    60   1     0.59364242480722695      27.094311986951595      18.390070000000001
    61   1     0.59364242480722695      27.094311986951595      14.287419999999999
    62   1      1.6485131040810908      35.005051412050136      14.287419999999999
    63   1      1.1210734691232558       31.04967608254276      22.492730000000002
    64   1      1.1210734691232558       31.04967608254276      18.390070000000001
    65   1      6.6587392883043117      42.388348558916434      22.492730000000002
    66   1      6.6587392883043117      42.388348558916434      18.390070000000001
    67   1      6.6587392883043117      42.388348558916434      14.287419999999999
    68   1      56.232247788200986      38.696754833427114      7.1900700000000004
    69   1      56.232247788200986      38.696754833427114      3.0874199999999998
    70   1       56.75963125357778      34.741378843101145      11.292730000000001
    71   1       56.75963125357778      34.741378843101145      7.1900700000000004
    72   1       56.75963125357778      34.741378843101145      3.0874199999999998
    73   1      7.7136099675781757      50.299087984014967      22.492730000000002
    74   1      7.7136099675781757      50.299087984014967      18.390070000000001
    75   1      7.7136099675781757      50.299087984014967      14.287419999999999
    76   1      7.1861789232621476      46.343723888423803      22.492730000000002
    77   1      7.1861789232621476      46.343723888423803      18.390070000000001
    78   1      7.1861789232621476      46.343723888423803      14.287419999999999
    79   1      8.2410396902570042       54.25446199188513      22.492730000000002
    80   1      8.2410396902570042       54.25446199188513      18.390070000000001
    81   1       4.549016432677397       26.56688226427277      22.492730000000002
    82   1       4.549016432677397       26.56688226427277      18.390070000000001
    83   1       4.549016432677397       26.56688226427277      14.287419999999999
    84   1      55.704864322824193      42.652130823753083      11.292730000000001
    85   1      55.704864322824193      42.652130823753083      7.1900700000000004
    86   1      55.704864322824193      42.652130823753083      3.0874199999999998
    87   1      56.232247788200986      38.696754833427114      11.292730000000001
    88   1      5.6038771996722545      34.477620367734104      22.492730000000002
    89   1      5.6038771996722545      34.477620367734104      18.390070000000001
    90   1      5.6038771996722545      34.477620367734104      14.287419999999999
    91   1      5.0764474769934251      30.522246359863935      22.492730000000002
    92   1      5.0764474769934251      30.522246359863935      18.390070000000001
    93   1      5.0764474769934251      30.522246359863935      14.287419999999999
    94   1      6.1313082439882827      38.432984463325269      22.492730000000002
    95   1      6.1313082439882827      38.432984463325269      18.390070000000001
    96   1      6.1313082439882827      38.432984463325269      14.287419999999999
    97   1      1.9118440298136405      6.7900393184845358      14.287419999999999
    98   1      2.4392849864086763      10.745404735712901      22.492730000000002
    99   1      2.4392849864086763      10.745404735712901      18.390070000000001
   100   1      2.4392849864086763      10.745404735712901      14.287419999999999
   101   1      55.177480857447392      46.607506814079059      11.292730000000001
   102   1      55.177480857447392      46.607506814079059      7.1900700000000004
   103   1      55.177480857447392      46.607506814079059      3.0874199999999998
   104   1      3.4941457534035343      18.656142839174233      22.492730000000002
   105   1      3.4941457534035343      18.656142839174233      18.390070000000001
   106   1      3.4941457534035343      18.656142839174233      14.287419999999999
   107   1      2.9667147090875052       14.70077874358307      22.492730000000002
   108   1      2.9667147090875052       14.70077874358307      18.390070000000001
   109   1      2.9667147090875052       14.70077874358307      14.287419999999999
   110   1       4.021576797719562      22.611506934765398      22.492730000000002
   111   1       4.021576797719562      22.611506934765398      18.390070000000001
   112   1       4.021576797719562      22.611506934765398      14.287419999999999
   113   1      11.668974063169339      49.771656939698936      18.390070000000001
   114   1      11.668974063169339      49.771656939698936      14.287419999999999
   115   1      54.122715248330998      54.518248882451999      7.1900700000000004
   116   1      54.122715248330998      54.518248882451999      3.0874199999999998
   117   1      54.650097392070599      50.562882804405035      11.292730000000001
   118   1      54.650097392070599      50.562882804405035      7.1900700000000004
   119   1      54.650097392070599      50.562882804405035      3.0874199999999998
   120   1      12.723844742443202      57.682396364797476      22.492730000000002
   121   1      12.723844742443202      57.682396364797476      18.390070000000001
   122   1      12.723844742443202      57.682396364797476      14.287419999999999
   123   1       12.19640510748537        53.7270210352901      22.492730000000002
   124   1      1.3844143071348125      2.8346653106143656      22.492730000000002
   125   1      1.3844143071348125      2.8346653106143656      18.390070000000001
   126   1      1.3844143071348125      2.8346653106143656      14.287419999999999
   127   1      1.9118440298136405      6.7900393184845358      22.492730000000002
   128   1      1.9118440298136405      6.7900393184845358      18.390070000000001
   129   1      9.5592426169006206      33.950179411139061      18.390070000000001
   130   1      9.5592426169006206      33.950179411139061      14.287419999999999
   131   1      10.614113296174484      41.860918836237602      22.492730000000002
   132   1      10.614113296174484      41.860918836237602      18.390070000000001
   133   1      10.614113296174484      41.860918836237602      14.287419999999999
   134   1      10.086682251858454      37.905554740646437      22.492730000000002
   135   1      53.595331782954204      58.473624872777968      11.292730000000001
   136   1      53.595331782954204      58.473624872777968      7.1900700000000004
   137   1      53.595331782954204      58.473624872777968      3.0874199999999998
   138   1      54.122715248330998      54.518248882451999      11.292730000000001
   139   1      11.141543018853314      45.816292844107771      22.492730000000002
   140   1      11.141543018853314      45.816292844107771      18.390070000000001
   141   1      11.141543018853314      45.816292844107771      14.287419999999999
   142   1       12.19640510748537        53.7270210352901      18.390070000000001
   143   1       12.19640510748537        53.7270210352901      14.287419999999999
   144   1      11.668974063169339      49.771656939698936      22.492730000000002
   145   1      7.4495197612737032      18.128713116495408      22.492730000000002
   146   1      7.4495197612737032      18.128713116495408      18.390070000000001
   147   1      7.4495197612737032      18.128713116495408      14.287419999999999
   148   1      8.5043805282685607      26.039451219956739      22.492730000000002
   149   1      8.5043805282685607      26.039451219956739      18.390070000000001
   150   1      8.5043805282685607      26.039451219956739      14.287419999999999
   151   1      7.9769508055897331      22.084077212086569      22.492730000000002
   152   1       57.02332166462898      2.5709973673955848      11.292730000000001
   153   1       57.02332166462898      2.5709973673955848      7.1900700000000004
   154   1       57.02332166462898      2.5709973673955848      3.0874199999999998
   155   1      9.0318115725845907      29.994815315547903      22.492730000000002
   156   1      9.0318115725845907      29.994815315547903      18.390070000000001
   157   1      9.0318115725845907      29.994815315547903      14.287419999999999
   158   1      10.086682251858454      37.905554740646437      18.390070000000001
   159   1      10.086682251858454      37.905554740646437      14.287419999999999
   160   1      9.5592426169006206      33.950179411139061      22.492730000000002
   161   1      5.3397883150049825      2.3072355879355371      18.390070000000001
   162   1      5.3397883150049825      2.3072355879355371      14.287419999999999
   163   1      55.968556055512593      10.481739435768521      7.1900700000000004
   164   1      55.968556055512593      10.481739435768521      3.0874199999999998
   165   1      56.495938199252187      6.5263733577215559      11.292730000000001
   166   1      56.495938199252187      6.5263733577215559      7.1900700000000004
   167   1      56.495938199252187      6.5263733577215559      3.0874199999999998
   168   1      6.3946490819998401      10.217973691396873      22.492730000000002
   169   1      6.3946490819998401      10.217973691396873      18.390070000000001
   170   1      6.3946490819998401      10.217973691396873      14.287419999999999
   171   1      5.8672193593210116      6.2625996835267008      22.492730000000002
   172   1        6.92208012631587      14.173337786988034      22.492730000000002
   173   1        6.92208012631587      14.173337786988034      18.390070000000001
   174   1        6.92208012631587      14.173337786988034      14.287419999999999
   175   1      7.9769508055897331      22.084077212086569      18.390070000000001
   176   1      7.9769508055897331      22.084077212086569      14.287419999999999
   177   1       15.62434807103951      49.244227217020111      22.492730000000002
   178   1       15.62434807103951      49.244227217020111      18.390070000000001
   179   1       15.62434807103951      49.244227217020111      14.287419999999999
   180   1      55.441172590135793      14.437115426094493      11.292730000000001
   181   1      55.441172590135793      14.437115426094493      7.1900700000000004
   182   1      55.441172590135793      14.437115426094493      3.0874199999999998
   183   1      55.968556055512593      10.481739435768521      11.292730000000001
   184   1      16.679208838034366      57.154965320481445      14.287419999999999
   185   1      16.151779115355538      53.199591312611268      22.492730000000002
   186   1      16.151779115355538      53.199591312611268      18.390070000000001
   187   1      16.151779115355538      53.199591312611268      14.287419999999999
   188   1      16.679208838034366      57.154965320481445      22.492730000000002
   189   1      16.679208838034366      57.154965320481445      18.390070000000001
   190   1      5.8672193593210116      6.2625996835267008      18.390070000000001
   191   1      5.8672193593210116      6.2625996835267008      14.287419999999999
   192   1      5.3397883150049825      2.3072355879355371      22.492730000000002
   193   1      12.459745945496925      25.512010263361706      18.390070000000001
   194   1      13.514616624770788      33.422749688460236      22.492730000000002
   195   1      13.514616624770788      33.422749688460236      18.390070000000001
   196   1      13.514616624770788      33.422749688460236      14.287419999999999
   197   1      54.913789124758999      18.392491416420466      11.292730000000001
   198   1      54.913789124758999      18.392491416420466      7.1900700000000004
   199   1      54.913789124758999      18.392491416420466      3.0874199999999998
   200   1      14.569477391765648       41.33348779192157      14.287419999999999
   201   1      14.042046347449617      37.378123696330405      22.492730000000002
   202   1      14.042046347449617      37.378123696330405      18.390070000000001
   203   1      14.042046347449617      37.378123696330405      14.287419999999999
   204   1      15.096908436081675      45.288851887512735      22.492730000000002
   205   1      15.096908436081675      45.288851887512735      18.390070000000001
   206   1      15.096908436081675      45.288851887512735      14.287419999999999
   207   1      14.569477391765648       41.33348779192157      22.492730000000002
   208   1      14.569477391765648       41.33348779192157      18.390070000000001
   209   1      11.404883856864867      17.601282072179377      22.492730000000002
   210   1      11.404883856864867      17.601282072179377      18.390070000000001
   211   1      11.404883856864867      17.601282072179377      14.287419999999999
   212   1      53.859022194005405      26.303243397072407      7.1900700000000004
   213   1      53.859022194005405      26.303243397072407      3.0874199999999998
   214   1      54.386405659382199      22.347867406746435      11.292730000000001
   215   1      54.386405659382199      22.347867406746435      7.1900700000000004
   216   1      54.386405659382199      22.347867406746435      3.0874199999999998
   217   1      12.459745945496925      25.512010263361706      14.287419999999999
   218   1      11.932314901180897      21.556646167770541      22.492730000000002
   219   1      11.932314901180897      21.556646167770541      18.390070000000001
   220   1      11.932314901180897      21.556646167770541      14.287419999999999
   221   1      12.987185580454756      29.467385592869075      22.492730000000002
   222   1      12.987185580454756      29.467385592869075      18.390070000000001
   223   1      12.987185580454756      29.467385592869075      14.287419999999999
   224   1      12.459745945496925      25.512010263361706      22.492730000000002
   225   1      9.2951524105961472      1.7798045436195085      18.390070000000001
   226   1      9.2951524105961472      1.7798045436195085      14.287419999999999
   227   1      53.331638728628612      30.258619387398383      11.292730000000001
   228   1      53.331638728628612      30.258619387398383      7.1900700000000004
   229   1      53.331638728628612      30.258619387398383      3.0874199999999998
   230   1      53.859022194005405      26.303243397072407      11.292730000000001
   231   1       10.35002308987001      9.6905439687180444      14.287419999999999
   232   1      9.8225834549121771      5.7351686392106718      22.492730000000002
   233   1      9.8225834549121771      5.7351686392106718      18.390070000000001
   234   1      9.8225834549121771      5.7351686392106718      14.287419999999999
   235   1      9.2951524105961472      1.7798045436195085      22.492730000000002
   236   1       10.87745413418604      13.645908064309205      22.492730000000002
   237   1       10.87745413418604      13.645908064309205      18.390070000000001
   238   1       10.87745413418604      13.645908064309205      14.287419999999999
   239   1       10.35002308987001      9.6905439687180444      22.492730000000002
   240   1       10.35002308987001      9.6905439687180444      18.390070000000001
   241   1      18.524851399635818      40.806058069242745      14.287419999999999
   242   1      19.052282443951846      44.761422164833903      22.492730000000002
   243   1      19.052282443951846      44.761422164833903      18.390070000000001
   244   1      19.052282443951846      44.761422164833903      14.287419999999999
   245   1      52.804255263251811      34.213995377724352      11.292730000000001
   246   1      52.804255263251811      34.213995377724352      7.1900700000000004
   247   1      52.804255263251811      34.213995377724352      3.0874199999999998
   248   1      20.107143210946703      52.672160268295244      22.492730000000002
   249   1      20.107143210946703      52.672160268295244      18.390070000000001
   250   1      20.107143210946703      52.672160268295244      14.287419999999999
   251   1      19.579712166630674      48.716796172704079      22.492730000000002
   252   1      19.579712166630674      48.716796172704079      18.390070000000001
   253   1      19.579712166630674      48.716796172704079      14.287419999999999
   254   1      20.634574255262731      56.627524363886408      22.492730000000002
   255   1      20.634574255262731      56.627524363886408      18.390070000000001
   256   1      20.634574255262731      56.627524363886408      14.287419999999999
   257   1      16.942549676045921      28.939954548553047      22.492730000000002
   258   1      16.942549676045921      28.939954548553047      18.390070000000001
   259   1      16.942549676045921      28.939954548553047      14.287419999999999
   260   1      51.749488332498224       42.12474735837629      7.1900700000000004
   261   1      51.749488332498224       42.12474735837629      3.0874199999999998
   262   1      52.276871797875017      38.169371368050321      11.292730000000001
   263   1      52.276871797875017      38.169371368050321      7.1900700000000004
   264   1      52.276871797875017      38.169371368050321      3.0874199999999998
   265   1      17.997411764677981      36.850682739735376      22.492730000000002
   266   1      17.997411764677981      36.850682739735376      18.390070000000001
   267   1      17.997411764677981      36.850682739735376      14.287419999999999
   268   1      17.469980720361953      32.895318644144211      22.492730000000002
   269   1      17.469980720361953      32.895318644144211      18.390070000000001
   270   1      17.469980720361953      32.895318644144211      14.287419999999999
   271   1      18.524851399635818      40.806058069242745      22.492730000000002
   272   1      18.524851399635818      40.806058069242745      18.390070000000001
   273   1      14.832818229777203      13.118477019993177      22.492730000000002
   274   1      14.832818229777203      13.118477019993177      18.390070000000001
   275   1      14.832818229777203      13.118477019993177      14.287419999999999
   276   1      51.222104867121423      46.080123348702266      11.292730000000001
   277   1      51.222104867121423      46.080123348702266      7.1900700000000004
   278   1      51.222104867121423      46.080123348702266      3.0874199999999998
   279   1      51.749488332498224       42.12474735837629      11.292730000000001
   280   1      15.887688909051066      21.029216445091709      22.492730000000002
   281   1      15.887688909051066      21.029216445091709      18.390070000000001
   282   1      15.887688909051066      21.029216445091709      14.287419999999999
   283   1      15.360249274093235       17.07384111558434      22.492730000000002
   284   1      15.360249274093235       17.07384111558434      18.390070000000001
   285   1      15.360249274093235       17.07384111558434      14.287419999999999
   286   1        16.4151199533671      24.984580540682874      22.492730000000002
   287   1        16.4151199533671      24.984580540682874      18.390070000000001
   288   1        16.4151199533671      24.984580540682874      14.287419999999999
   289   1      25.117377985811736      60.055468649077746      14.287419999999999
   290   1      24.589948263132904      56.100094641207576      22.492730000000002
   291   1      24.589948263132904      56.100094641207576      18.390070000000001
   292   1      24.589948263132904      56.100094641207576      14.287419999999999
   293   1       50.69472140174463      50.035499339028242      11.292730000000001
   294   1       50.69472140174463      50.035499339028242      7.1900700000000004
   295   1       50.69472140174463      50.035499339028242      3.0874199999999998
   296   1      13.777957462782346      5.2077389165318442      22.492730000000002
   297   1      13.777957462782346      5.2077389165318442      18.390070000000001
   298   1      13.777957462782346      5.2077389165318442      14.287419999999999
   299   1      13.250526418466318      1.2523748209406802      22.492730000000002
   300   1      13.250526418466318      1.2523748209406802      18.390070000000001
   301   1      13.250526418466318      1.2523748209406802      14.287419999999999
   302   1      14.305388507098376      9.1631030121230079      22.492730000000002
   303   1      14.305388507098376      9.1631030121230079      18.390070000000001
   304   1      14.305388507098376      9.1631030121230079      14.287419999999999
   305   1      22.480215495226979       40.27862702492672      22.492730000000002
   306   1      22.480215495226979       40.27862702492672      18.390070000000001
   307   1      22.480215495226979       40.27862702492672      14.287419999999999
   308   1      49.639955792628236      57.946241407401175      7.1900700000000004
   309   1      49.639955792628236      57.946241407401175      3.0874199999999998
   310   1      50.167339258005029      53.990865417075199      11.292730000000001
   311   1      50.167339258005029      53.990865417075199      7.1900700000000004
   312   1      50.167339258005029      53.990865417075199      3.0874199999999998
   313   1      23.535077583859042      48.189355216109043      22.492730000000002
   314   1      23.535077583859042      48.189355216109043      18.390070000000001
   315   1      23.535077583859042      48.189355216109043      14.287419999999999
   316   1      24.062517218816872      52.144730545616412      22.492730000000002
   317   1      24.062517218816872      52.144730545616412      18.390070000000001
   318   1      24.062517218816872      52.144730545616412      14.287419999999999
   319   1      25.117377985811736      60.055468649077746      22.492730000000002
   320   1      25.117377985811736      60.055468649077746      18.390070000000001
   321   1      20.897915093274285       28.41251359195801      22.492730000000002
   322   1      20.897915093274285       28.41251359195801      18.390070000000001
   323   1      20.897915093274285       28.41251359195801      14.287419999999999
   324   1      20.370484048958261      24.457149496366849      22.492730000000002
   325   1      20.370484048958261      24.457149496366849      18.390070000000001
   326   1      20.370484048958261      24.457149496366849      14.287419999999999
   327   1      21.425354728232126      32.367888921465386      22.492730000000002
   328   1      21.425354728232126      32.367888921465386      18.390070000000001
   329   1      21.425354728232126      32.367888921465386      14.287419999999999
   330   1      49.639955792628236      57.946241407401175      11.292730000000001
   331   1       21.95278577254815      36.323253017056544      22.492730000000002
   332   1       21.95278577254815      36.323253017056544      18.390070000000001
   333   1       21.95278577254815      36.323253017056544      14.287419999999999
   334   1      23.007646539543007      44.233991120517885      22.492730000000002
   335   1      23.007646539543007      44.233991120517885      18.390070000000001
   336   1      23.007646539543007      44.233991120517885      14.287419999999999
   337   1      18.788192237647372      12.591047297314349      14.287419999999999
   338   1      18.260752602689539       8.635671967806978      22.492730000000002
   339   1      18.260752602689539       8.635671967806978      18.390070000000001
   340   1      18.260752602689539       8.635671967806978      14.287419999999999
   341   1      52.540562208926218      5.9989898923447589      11.292730000000001
   342   1      52.540562208926218      5.9989898923447589      7.1900700000000004
   343   1      52.540562208926218      5.9989898923447589      3.0874199999999998
   344   1      53.067945674303012      2.0436139020187878      11.292730000000001
   345   1      53.067945674303012      2.0436139020187878      7.1900700000000004
   346   1      53.067945674303012      2.0436139020187878      3.0874199999999998
   347   1      19.315623281963404      16.546411392905512      22.492730000000002
   348   1      19.315623281963404      16.546411392905512      18.390070000000001
   349   1      19.315623281963404      16.546411392905512      14.287419999999999
   350   1      19.843053004642229      20.501785400775685      22.492730000000002
   351   1      19.843053004642229      20.501785400775685      18.390070000000001
   352   1      19.843053004642229      20.501785400775685      14.287419999999999
   353   1      28.545312358724065      55.572663596891545      18.390070000000001
   354   1      28.545312358724065      55.572663596891545      14.287419999999999
   355   1      17.205891835694683     0.72493386434564477      14.287419999999999
   356   1      29.072753315319105      59.528029014119916      22.492730000000002
   357   1      29.072753315319105      59.528029014119916      18.390070000000001