(written by ASE)

8472 atoms
3 atom types

0.0       74.97241652022241  xlo xhi
0.0       74.97241652022241  ylo yhi
0.0                      50  zlo zhi

Masses

     1       137.3269999646734 # Ba
     2      15.998999995884349 # O
     3      47.866999987686484 # Ti

Atoms # atomic

     1   1      10.247646096179006      36.795953991802783      7.1900700000000004
     2   1      10.247646096179006      36.795953991802783      3.0874199999999998
     3   1      11.946738074009032      33.185383538913975      11.292730000000001
     4   1      11.946738074009032      33.185383538913975      7.1900700000000004
     5   1       8.442306580612474      1.5401307669958768      18.390070000000001
     6   1       8.442306580612474      1.5401307669958768      14.287419999999999
     7   1      71.627325698914603      65.680509098972465      11.292730000000001
     8   1      71.627325698914603      65.680509098972465      7.1900700000000004
     9   1      71.627325698914603      65.680509098972465      3.0874199999999998
    10   1      69.928233721084581      69.291079551861273      11.292730000000001
    11   1       10.56377910580213      62.282737634191371      22.492730000000002
    12   1       10.56377910580213      62.282737634191371      18.390070000000001
    13   1       10.56377910580213      62.282737634191371      14.287419999999999
    14   1       40.40651965447492      28.937649336368555      11.292730000000001
    15   1       40.40651965447492      28.937649336368555      7.1900700000000004
    16   1       40.40651965447492      28.937649336368555      3.0874199999999998
    17   1      4.8316642744737912      3.2390779738335493      22.492730000000002
    18   1      4.8316642744737912      3.2390779738335493      18.390070000000001
    19   1      4.8316642744737912      3.2390779738335493      14.287419999999999
    20   1      1.2210310165221296      4.9380294386415855      22.492730000000002
    21   1      1.2210310165221296      4.9380294386415855      18.390070000000001
    22   1      1.2210310165221296      4.9380294386415855      14.287419999999999
    23   1      73.326417676744626      62.069938646083671      11.292730000000001
    24   1      73.326417676744626      62.069938646083671      7.1900700000000004
    25   1      73.326417676744626      62.069938646083671      3.0874199999999998
    26   1       8.442306580612474      1.5401307669958768      22.492730000000002
    27   1      73.538804173973389      70.990171529691295      11.292730000000001
    28   1      73.538804173973389      70.990171529691295      7.1900700000000004
    29   1      73.538804173973389      70.990171529691295      3.0874199999999998
    30   1      71.839712196143367      74.600741982580089      11.292730000000001
    31   1      71.839712196143367      74.600741982580089      7.1900700000000004
    32   1      10.247646096179006      36.795953991802783      11.292730000000001
    33   1      20.973162609492153    0.053922936680817088      22.492730000000002
    34   1      20.973162609492153    0.053922936680817088      18.390070000000001
    35   1      20.973162609492153    0.053922936680817088      14.287419999999999
    36   1      17.362520303353467      1.7528701435184879      22.492730000000002
    37   1      13.645830051839056      29.574813086025177      3.0874199999999998
    38   1      17.044014007499104      22.353672180247571      11.292730000000001
    39   1      17.044014007499104      22.353672180247571      7.1900700000000004
    40   1      17.044014007499104      22.353672180247571      3.0874199999999998
    41   1      5.1503701626889331      47.627665350469186      11.292730000000001
    42   1      5.1503701626889331      47.627665350469186      7.1900700000000004
    43   1      5.1503701626889331      47.627665350469186      3.0874199999999998
    44   1       18.74310598532913      18.743101727358766      11.292730000000001
    45   1      17.362520303353467      1.7528701435184879      18.390070000000001
    46   1      17.362520303353467      1.7528701435184879      14.287419999999999
    47   1       64.61857129036575      71.202558026920045      11.292730000000001
    48   1       64.61857129036575      71.202558026920045      7.1900700000000004
    49   1      20.442197963159156      15.132531274469965      7.1900700000000004
    50   1      10.141253787450147      5.1507730731345607      22.492730000000002
    51   1      10.141253787450147      5.1507730731345607      18.390070000000001
    52   1      10.141253787450147      5.1507730731345607      14.287419999999999
    53   1      69.715847223855818      60.370846668253648      11.292730000000001
    54   1      69.715847223855818      60.370846668253648      7.1900700000000004
    55   1      69.715847223855818      60.370846668253648      3.0874199999999998
    56   1      13.751887045401807      3.4518216083265245      22.492730000000002
    57   1      13.751887045401807      3.4518216083265245      18.390070000000001
    58   1      13.751887045401807      3.4518216083265245      14.287419999999999
    59   1      68.016755246025795      63.981417121142449      11.292730000000001
    60   1      68.016755246025795      63.981417121142449      7.1900700000000004
    61   1      68.016755246025795      63.981417121142449      3.0874199999999998
    62   1      66.317663268195773      67.591987574031251      11.292730000000001
    63   1      66.317663268195773      67.591987574031251      7.1900700000000004
    64   1      66.317663268195773      67.591987574031251      3.0874199999999998
    65   1       71.41493920168584      56.760276215364847      3.0874199999999998
    66   1      6.5306114813114631      6.8497202799722325      22.492730000000002
    67   1      6.5306114813114631      6.8497202799722325      18.390070000000001
    68   1      6.5306114813114631      6.8497202799722325      14.287419999999999
    69   1      2.9199782233598022      8.5486717447802683      22.492730000000002
    70   1      2.9199782233598022      8.5486717447802683      18.390070000000001
    71   1      2.9199782233598022      8.5486717447802683      14.287419999999999
    72   1       18.74310598532913      18.743101727358766      7.1900700000000004
    73   1       18.74310598532913      18.743101727358766      3.0874199999999998
    74   1      3.4512824428292723      51.238226755170963      11.292730000000001
    75   1      3.4512824428292723      51.238226755170963      7.1900700000000004
    76   1      3.4512824428292723      51.238226755170963      3.0874199999999998
    77   1      22.141289940989179      11.521960821581162      11.292730000000001
    78   1      22.141289940989179      11.521960821581162      7.1900700000000004
    79   1      22.141289940989179      11.521960821581162      3.0874199999999998
    80   1      20.442197963159156      15.132531274469965      11.292730000000001
    81   1       29.89338059020351      0.2666532650164043      14.287419999999999
    82   1      26.282747332251848      1.9656047298244417      22.492730000000002
    83   1      26.282747332251848      1.9656047298244417      18.390070000000001
    84   1      26.282747332251848      1.9656047298244417      14.287419999999999
    85   1      20.442197963159156      15.132531274469965      3.0874199999999998
    86   1      1.7521904649992468      54.848797208059771      11.292730000000001
    87   1      1.7521904649992468      54.848797208059771      7.1900700000000004
    88   1      1.7521904649992468      54.848797208059771      3.0874199999999998
    89   1    0.053098487169221324      58.459367660948573      11.292730000000001
    90   1    0.053098487169221324      58.459367660948573      7.1900700000000004
    91   1    0.053098487169221324      58.459367660948573      3.0874199999999998
    92   1      23.840377660848841      7.9113994168793811      11.292730000000001
    93   1      23.840377660848841      7.9113994168793811      7.1900700000000004
    94   1      23.840377660848841      7.9113994168793811      3.0874199999999998
    95   1       71.41493920168584      56.760276215364847      11.292730000000001
    96   1       71.41493920168584      56.760276215364847      7.1900700000000004
    97   1      22.672114074300186      3.6645561946324765      18.390070000000001
    98   1      22.672114074300186      3.6645561946324765      14.287419999999999
    99   1      61.008009885663974      69.503470307060383      11.292730000000001
   100   1      61.008009885663974      69.503470307060383      7.1900700000000004
   101   1      61.008009885663974      69.503470307060383      3.0874199999999998
   102   1      59.308917907833951      73.114040759949191      11.292730000000001
   103   1      59.308917907833951      73.114040759949191      7.1900700000000004
   104   1      59.308917907833951      73.114040759949191      3.0874199999999998
   105   1      74.813123157345899      49.539135309587238      11.292730000000001
   106   1      74.813123157345899      49.539135309587238      7.1900700000000004
   107   1      74.813123157345899      49.539135309587238      3.0874199999999998
   108   1      73.114031179515862      53.149705762476039      11.292730000000001
   109   1      73.114031179515862      53.149705762476039      7.1900700000000004
   110   1      73.114031179515862      53.149705762476039      3.0874199999999998
   111   1       29.89338059020351      0.2666532650164043      22.492730000000002
   112   1       29.89338059020351      0.2666532650164043      18.390070000000001
   113   1      11.840205252258183      8.7614063310862207      22.492730000000002
   114   1      11.840205252258183      8.7614063310862207      18.390070000000001
   115   1      11.840205252258183      8.7614063310862207      14.287419999999999
   116   1      62.707101863493996      65.892899854171588      11.292730000000001
   117   1      62.707101863493996      65.892899854171588      7.1900700000000004
   118   1      62.707101863493996      65.892899854171588      3.0874199999999998
   119   1      19.061471768161507      5.3635034014701493      22.492730000000002
   120   1      19.061471768161507      5.3635034014701493      18.390070000000001
   121   1      19.061471768161507      5.3635034014701493      14.287419999999999
   122   1      25.539469638678867       4.300828963990579      11.292730000000001
   123   1      25.539469638678867       4.300828963990579      7.1900700000000004
   124   1      25.539469638678867       4.300828963990579      3.0874199999999998
   125   1      30.849132069397694      2.3893504889318025      11.292730000000001
   126   1      27.238561616508889      0.6902585111017765      11.292730000000001
   127   1      27.238561616508889      0.6902585111017765      7.1900700000000004
   128   1      22.672114074300186      3.6645561946324765      22.492730000000002
   129   1      64.406193841324026      62.282329401282787      7.1900700000000004
   130   1      64.406193841324026      62.282329401282787      3.0874199999999998
   131   1      15.450838510209845      7.0624548662781859      22.492730000000002
   132   1      15.450838510209845      7.0624548662781859      18.390070000000001
   133   1      27.238561616508889      0.6902585111017765      3.0874199999999998
   134   1      1.5397997098001319      45.928573372639164      11.292730000000001
   135   1      1.5397997098001319      45.928573372639164      7.1900700000000004
   136   1      1.5397997098001319      45.928573372639164      3.0874199999999998
   137   1      30.849132069397694      2.3893504889318025      7.1900700000000004
   138   1      30.849132069397694      2.3893504889318025      3.0874199999999998
   139   1      29.150040091567671       5.999920941820605      11.292730000000001
   140   1      29.150040091567671       5.999920941820605      7.1900700000000004
   141   1      29.150040091567671       5.999920941820605      3.0874199999999998
   142   1      4.9379836654601794      38.707432466861562      11.292730000000001
   143   1      4.9379836654601794      38.707432466861562      7.1900700000000004
   144   1      15.450838510209845      7.0624548662781859      14.287419999999999
   145   1      6.6370756432902054      35.096862013972753      7.1900700000000004
   146   1      6.6370756432902054      35.096862013972753      3.0874199999999998
   147   1       67.80437779698407      55.061188495505185      11.292730000000001
   148   1       67.80437779698407      55.061188495505185      7.1900700000000004
   149   1       67.80437779698407      55.061188495505185      3.0874199999999998
   150   1      4.6189296881678388       12.15930500273193      22.492730000000002
   151   1      4.6189296881678388       12.15930500273193      18.390070000000001
   152   1      4.6189296881678388       12.15930500273193      14.287419999999999
   153   1       1.008296430216177      13.858256467539967      22.492730000000002
   154   1      8.2295629461194988      10.460353537923895      22.492730000000002
   155   1      8.2295629461194988      10.460353537923895      18.390070000000001
   156   1      8.2295629461194988      10.460353537923895      14.287419999999999
   157   1      66.105285819154048      58.671758948393986      11.292730000000001
   158   1      66.105285819154048      58.671758948393986      7.1900700000000004
   159   1      66.105285819154048      58.671758948393986      3.0874199999999998
   160   1      64.406193841324026      62.282329401282787      11.292730000000001
   161   1      38.813607619101887     0.47938785132235556      14.287419999999999
   162   1      35.202974361150225      2.1783393161303946      22.492730000000002
   163   1      35.202974361150225      2.1783393161303946      18.390070000000001
   164   1      69.503469774814093      51.450618042616377      11.292730000000001
   165   1      69.503469774814093      51.450618042616377      7.1900700000000004
   166   1      69.503469774814093      51.450618042616377      3.0874199999999998
   167   1       1.008296430216177      13.858256467539967      18.390070000000001
   168   1       1.008296430216177      13.858256467539967      14.287419999999999
   169   1      4.9379836654601794      38.707432466861562      3.0874199999999998
   170   1      3.2388916876301574      42.318002919750356      11.292730000000001
   171   1      3.2388916876301574      42.318002919750356      7.1900700000000004
   172   1      3.2388916876301574      42.318002919750356      3.0874199999999998
   173   1      27.450948113737645      9.6104913947094079      11.292730000000001
   174   1      27.450948113737645      9.6104913947094079      7.1900700000000004
   175   1      27.450948113737645      9.6104913947094079      3.0874199999999998
   176   1      6.6370756432902054      35.096862013972753      11.292730000000001
   177   1      71.202561752644129      47.840047589727575      7.1900700000000004
   178   1      71.202561752644129      47.840047589727575      3.0874199999999998
   179   1      35.202974361150225      2.1783393161303946      14.287419999999999
   180   1      31.592332055011546      3.8772865229680664      22.492730000000002
   181   1      31.592332055011546      3.8772865229680664      18.390070000000001
   182   1      31.592332055011546      3.8772865229680664      14.287419999999999
   183   1      8.3361676211202305      31.486291561083952      11.292730000000001
   184   1      8.3361676211202305      31.486291561083952      7.1900700000000004
   185   1      8.3361676211202305      31.486291561083952      3.0874199999999998
   186   1      25.751860393877983      13.221052799411188      11.292730000000001
   187   1      25.751860393877983      13.221052799411188      7.1900700000000004
   188   1      25.751860393877983      13.221052799411188      3.0874199999999998
   189   1      24.052768416047961      16.831623252299991      11.292730000000001
   190   1      11.734351576780281      24.265150655306346      11.292730000000001
   191   1      38.813607619101887     0.47938785132235556      22.492730000000002
   192   1      38.813607619101887     0.47938785132235556      18.390070000000001
   193   1      27.981698797059888      5.5762379877761035      18.390070000000001
   194   1      11.734351576780281      24.265150655306346      7.1900700000000004
   195   1      11.734351576780281      24.265150655306346      3.0874199999999998
   196   1      10.035259598950255      27.875721108195151      11.292730000000001
   197   1      10.035259598950255      27.875721108195151      7.1900700000000004
   198   1      10.035259598950255      27.875721108195151      3.0874199999999998
   199   1      24.052768416047961      16.831623252299991      7.1900700000000004
   200   1      24.052768416047961      16.831623252299991      3.0874199999999998
   201   1      22.353676438217935      20.442193705188792      11.292730000000001
   202   1      22.353676438217935      20.442193705188792      7.1900700000000004
   203   1      22.353676438217935      20.442193705188792      3.0874199999999998
   204   1      27.981698797059888      5.5762379877761035      14.287419999999999
   205   1      72.901653730474152      44.229477136838774      11.292730000000001
   206   1      72.901653730474152      44.229477136838774      7.1900700000000004
   207   1      72.901653730474152      44.229477136838774      3.0874199999999998
   208   1      71.202561752644129      47.840047589727575      11.292730000000001
   209   1      17.149789975017882      10.673088124229848      14.287419999999999
   210   1      57.397439432775165       67.80437832923036      11.292730000000001
   211   1      57.397439432775165       67.80437832923036      7.1900700000000004
   212   1      57.397439432775165       67.80437832923036      3.0874199999999998
   213   1      55.698347454945143      71.414948782119168      11.292730000000001
   214   1      24.371065539108223      7.2751894525841365      22.492730000000002
   215   1      24.371065539108223      7.2751894525841365      18.390070000000001
   216   1      24.371065539108223      7.2751894525841365      14.287419999999999
   217   1      20.760423232969544      8.9741366594218093      22.492730000000002
   218   1      20.760423232969544      8.9741366594218093      18.390070000000001
   219   1      55.698347454945143      71.414948782119168      7.1900700000000004
   220   1      55.698347454945143      71.414948782119168      3.0874199999999998
   221   1      74.600745708304174      40.618906683949973      11.292730000000001
   222   1      74.600745708304174      40.618906683949973      7.1900700000000004
   223   1      74.600745708304174      40.618906683949973      3.0874199999999998
   224   1      27.981698797059888      5.5762379877761035      22.492730000000002
   225   1       13.53915671706622      12.372039589037882      14.287419999999999
   226   1      59.096531410605188      64.193807876341566      11.292730000000001
   227   1      59.096531410605188      64.193807876341566      7.1900700000000004
   228   1      59.096531410605188      64.193807876341566      3.0874199999999998
   229   1      20.760423232969544      8.9741366594218093      14.287419999999999
   230   1      13.433443554610305      20.654580202417545      11.292730000000001
   231   1      13.433443554610305      20.654580202417545      7.1900700000000004
   232   1      13.433443554610305      20.654580202417545      3.0874199999999998
   233   1      15.132535532440329      17.044009749528744      11.292730000000001
   234   1      15.132535532440329      17.044009749528744      7.1900700000000004
   235   1      15.132535532440329      17.044009749528744      3.0874199999999998
   236   1      20.654584460387909      24.052764158077597      11.292730000000001
   237   1      20.654584460387909      24.052764158077597      7.1900700000000004
   238   1      20.654584460387909      24.052764158077597      3.0874199999999998
   239   1      17.149789975017882      10.673088124229848      22.492730000000002
   240   1      17.149789975017882      10.673088124229848      18.390070000000001
   241   1      9.9285144109275354      14.070986795875555      18.390070000000001
   242   1      9.9285144109275354      14.070986795875555      14.287419999999999
   243   1      18.955492482557887      27.663334610966398      11.292730000000001
   244   1      18.955492482557887      27.663334610966398      7.1900700000000004
   245   1      18.955492482557887      27.663334610966398      3.0874199999999998
   246   1      17.256400504727861      31.273905063855203      11.292730000000001
   247   1      18.530719488100377       9.822868843751138      11.292730000000001
   248   1      18.530719488100377       9.822868843751138      7.1900700000000004
   249   1      18.530719488100377       9.822868843751138      3.0874199999999998
   250   1      16.831627510270355      13.433439296639941      11.292730000000001
   251   1      16.831627510270355      13.433439296639941      7.1900700000000004
   252   1      16.831627510270355      13.433439296639941      3.0874199999999998
   253   1      6.3178811529758745      15.769938260683592      22.492730000000002
   254   1      6.3178811529758745      15.769938260683592      18.390070000000001
   255   1       13.53915671706622      12.372039589037882      22.492730000000002
   256   1       13.53915671706622      12.372039589037882      18.390070000000001
   257   1      47.733830390029908     0.69213148581532991      18.390070000000001
   258   1      47.733830390029908     0.69213148581532991      14.287419999999999
   259   1      64.193807344095262      53.362096517675155      11.292730000000001
   260   1      64.193807344095262      53.362096517675155      7.1900700000000004
   261   1      64.193807344095262      53.362096517675155      3.0874199999999998
   262   1       62.49471536626524      56.972666970563957      11.292730000000001
   263   1      6.3178811529758745      15.769938260683592      14.287419999999999
   264   1      2.7072478950242118      17.468889725491625      22.492730000000002
   265   1      2.7072478950242118      17.468889725491625      18.390070000000001
   266   1      2.7072478950242118      17.468889725491625      14.287419999999999
   267   1       62.49471536626524      56.972666970563957      7.1900700000000004
   268   1       62.49471536626524      56.972666970563957      3.0874199999999998
   269   1      60.795623388435217      60.583237423452758      11.292730000000001
   270   1      60.795623388435217      60.583237423452758      7.1900700000000004
   271   1      60.795623388435217      60.583237423452758      3.0874199999999998
   272   1      9.9285144109275354      14.070986795875555      22.492730000000002
   273   1      65.892899321925285      49.751526064786347      7.1900700000000004
   274   1      65.892899321925285      49.751526064786347      3.0874199999999998
   275   1      44.123188083891229      2.3910786926530054      22.492730000000002
   276   1      44.123188083891229      2.3910786926530054      18.390070000000001
   277   1      44.123188083891229      2.3910786926530054      14.287419999999999
   278   1       20.22980720796004      6.2123074390493569      11.292730000000001
   279   1       20.22980720796004      6.2123074390493569      7.1900700000000004
   280   1       20.22980720796004      6.2123074390493569      3.0874199999999998
   281   1      17.256400504727861      31.273905063855203      7.1900700000000004
   282   1      17.256400504727861      31.273905063855203      3.0874199999999998
   283   1      15.557308526897836      34.884475516744004      11.292730000000001
   284   1      15.557308526897836      34.884475516744004      7.1900700000000004
   285   1      15.557308526897836      34.884475516744004      3.0874199999999998
   286   1      21.928899185790065      2.6017369861605548      11.292730000000001
   287   1      21.928899185790065      2.6017369861605548      7.1900700000000004
   288   1      47.733830390029908     0.69213148581532991      22.492730000000002
   289   1      36.901921567987905      5.7889816222690778      14.287419999999999
   290   1      33.291279261849219      7.4879288291067496      22.492730000000002
   291   1      33.291279261849219      7.4879288291067496      18.390070000000001
   292   1      33.291279261849219      7.4879288291067496      14.287419999999999
   293   1      21.928899185790065      2.6017369861605548      3.0874199999999998
   294   1      1.3274132125713749      37.008340489031532      7.1900700000000004
   295   1      1.3274132125713749      37.008340489031532      3.0874199999999998
   296   1       13.85821654906781      38.495045969632805      11.292730000000001
   297   1       13.85821654906781      38.495045969632805      7.1900700000000004
   298   1       13.85821654906781      38.495045969632805      3.0874199999999998
   299   1      3.0265051904014006      33.397770036142731      11.292730000000001
   300   1      3.0265051904014006      33.397770036142731      7.1900700000000004
   301   1       40.51255482593956      4.0900301574610429      22.492730000000002
   302   1       40.51255482593956      4.0900301574610429      18.390070000000001
   303   1       40.51255482593956      4.0900301574610429      14.287419999999999
   304   1      65.892899321925285      49.751526064786347      11.292730000000001
   305   1      4.7255971682314257      29.787199583253926      7.1900700000000004
   306   1      26.070012745945899      10.885831758722821      14.287419999999999
   307   1      70.990175255415366      38.919814706119944      11.292730000000001
   308   1      70.990175255415366      38.919814706119944      7.1900700000000004
   309   1      70.990175255415366      38.919814706119944      3.0874199999999998
   310   1      69.291083277585344      42.530385159008745      11.292730000000001
   311   1      29.680646003897561      9.1868802939147844      22.492730000000002
   312   1      29.680646003897561      9.1868802939147844      18.390070000000001
   313   1      29.680646003897561      9.1868802939147844      14.287419999999999
   314   1      69.291083277585344      42.530385159008745      7.1900700000000004
   315   1      69.291083277585344      42.530385159008745      3.0874199999999998
   316   1      67.591991299755321      46.140955611897546      11.292730000000001
   317   1      67.591991299755321      46.140955611897546      7.1900700000000004
   318   1      67.591991299755321      46.140955611897546      3.0874199999999998
   319   1      36.901921567987905      5.7889816222690778      22.492730000000002
   320   1      36.901921567987905      5.7889816222690778      18.390070000000001
   321   1      22.459370439807209      12.584778965560492      14.287419999999999
   322   1      18.848737181855551       14.28373043036853      22.492730000000002
   323   1      18.848737181855551       14.28373043036853      18.390070000000001
   324   1      18.848737181855551       14.28373043036853      14.287419999999999
   325   1      72.689267233245388      35.309244253231135      11.292730000000001
   326   1      72.689267233245388      35.309244253231135      7.1900700000000004
   327   1      72.689267233245388      35.309244253231135      3.0874199999999998
   328   1      26.070012745945899      10.885831758722821      22.492730000000002
   329   1      26.070012745945899      10.885831758722821      18.390070000000001
   330   1      3.0265051904014006      33.397770036142731      3.0874199999999998
   331   1      1.3274132125713749      37.008340489031532      11.292730000000001
   332   1      12.159124571237786      42.105616422521614      11.292730000000001
   333   1      12.159124571237786      42.105616422521614      7.1900700000000004
   334   1      12.159124571237786      42.105616422521614      3.0874199999999998
   335   1      10.460032593407764      45.716186875410408      11.292730000000001
   336   1      4.7255971682314257      29.787199583253926      11.292730000000001
   337   1      74.388354953105051      31.698682848529359      11.292730000000001
   338   1      74.388354953105051      31.698682848529359      7.1900700000000004
   339   1      74.388354953105051      31.698682848529359      3.0874199999999998
   340   1      22.459370439807209      12.584778965560492      22.492730000000002
   341   1      4.7255971682314257      29.787199583253926      3.0874199999999998
   342   1      10.460032593407764      45.716186875410408      7.1900700000000004
   343   1      10.460032593407764      45.716186875410408      3.0874199999999998
   344   1      8.7609406155777378      49.326757328299216      11.292730000000001
   345   1      8.7609406155777378      49.326757328299216      7.1900700000000004
   346   1      8.7609406155777378      49.326757328299216      3.0874199999999998
   347   1      8.1237811238914759       22.56605867747632      7.1900700000000004
   348   1      8.1237811238914759       22.56605867747632      3.0874199999999998
   349   1      6.4246891460614499      26.176629130365125      11.292730000000001
   350   1      6.4246891460614499      26.176629130365125      7.1900700000000004
   351   1      6.4246891460614499      26.176629130365125      3.0874199999999998
   352   1      22.459370439807209      12.584778965560492      18.390070000000001
   353   1      4.4061951018618863      21.079532031630311      14.287419999999999
   354   1      53.786868979886371      66.105286351400338      11.292730000000001
   355   1      53.786868979886371      66.105286351400338      7.1900700000000004
   356   1      53.786868979886371      66.105286351400338      3.0874199999999998
   357   1      11.627461617765208      17.681629102014238      22.492730000000002