(written by ASE)

7320 atoms
3 atom types

0.0      69.688974905621791  xlo xhi
0.0      69.688974905621791  ylo yhi
0.0                      50  zlo zhi

Masses

     1       137.3269999646734 # Ba
     2      15.998999995884349 # O
     3      47.866999987686484 # Ti

Atoms # atomic

     1   1      42.327477790746194      15.251605551543982      11.292730000000001
     2   1      42.327477790746194      15.251605551543982      7.1900700000000004
     3   1      42.327477790746194      15.251605551543982      3.0874199999999998
     4   1      40.728062340038974      18.907412296017633      11.292730000000001
     5   1      40.728062340038974      18.907412296017633      7.1900700000000004
     6   1      40.728062340038974      18.907412296017633      3.0874199999999998
     7   1      37.529223422247853      26.219044108111628      11.292730000000001
     8   1      37.529223422247853      26.219044108111628      7.1900700000000004
     9   1      37.529223422247853      26.219044108111628      3.0874199999999998
    10   1      43.926897249641755      11.595789645496986      11.292730000000001
    11   1      43.926897249641755      11.595789645496986      7.1900700000000004
    12   1      43.926897249641755      11.595789645496986      3.0874199999999998
    13   1      45.526316708537323      7.9399737394499867      11.292730000000001
    14   1      45.526316708537323      7.9399737394499867      7.1900700000000004
    15   1      45.526316708537323      7.9399737394499867      3.0874199999999998
    16   1      35.929803963352292      29.874860014158624      11.292730000000001
    17   1      8.3969850836059212      1.7706017391270323      18.390070000000001
    18   1      8.3969850836059212      1.7706017391270323      14.287419999999999
    19   1      12.052765488556192     0.17110097126799867      22.492730000000002
    20   1      12.052765488556192     0.17110097126799867      18.390070000000001
    21   1      66.090285188240017      60.492318227302228      11.292730000000001
    22   1      66.090285188240017      60.492318227302228      7.1900700000000004
    23   1      66.090285188240017      60.492318227302228      3.0874199999999998
    24   1      64.490865729344463      64.148134133349217      11.292730000000001
    25   1      64.490865729344463      64.148134133349217      7.1900700000000004
    26   1      64.490865729344463      64.148134133349217      3.0874199999999998
    27   1      68.146672473818114      65.747549584056443      11.292730000000001
    28   1      68.146672473818114      65.747549584056443      7.1900700000000004
    29   1      68.146672473818114      65.747549584056443      3.0874199999999998
    30   1      66.547253014922546       69.40336549010344      11.292730000000001
    31   1      66.547253014922546       69.40336549010344      7.1900700000000004
    32   1      39.128642881143413      22.563228202064629      3.0874199999999998
    33   1      6.3407054465146855      7.0258829119363364      22.492730000000002
    34   1      6.3407054465146855      7.0258829119363364      18.390070000000001
    35   1      6.3407054465146855      7.0258829119363364      14.287419999999999
    36   1      59.235630364401906      66.204530580500659      11.292730000000001
    37   1      59.235630364401906      66.204530580500659      7.1900700000000004
    38   1      59.235630364401906      66.204530580500659      3.0874199999999998
    39   1      69.289124106031139      53.180686415208228      11.292730000000001
    40   1      69.289124106031139      53.180686415208228      7.1900700000000004
    41   1      69.289124106031139      53.180686415208228      3.0874199999999998
    42   1      13.652266256415226      3.8268813762182692      22.492730000000002
    43   1      13.652266256415226      3.8268813762182692      18.390070000000001
    44   1      13.652266256415226      3.8268813762182692      14.287419999999999
    45   1      9.9964858514649535      5.4263821440773023      22.492730000000002
    46   1      9.9964858514649535      5.4263821440773023      18.390070000000001
    47   1      9.9964858514649535      5.4263821440773023      14.287419999999999
    48   1      17.308046661365491      2.2273806083592338      22.492730000000002
    49   1       15.25176702427426       7.482661781168539      18.390070000000001
    50   1      22.563323825986458      4.2836694070238197      22.492730000000002
    51   1      22.563323825986458      4.2836694070238197      18.390070000000001
    52   1      22.563323825986458      4.2836694070238197      14.287419999999999
    53   1       60.83504982329746      62.548714674453663      11.292730000000001
    54   1       60.83504982329746      62.548714674453663      7.1900700000000004
    55   1       60.83504982329746      62.548714674453663      3.0874199999999998
    56   1         29.874884635887      1.0846678713057507      14.287419999999999
    57   1      26.219104230936729      2.6841686391647857      22.492730000000002
    58   1      26.219104230936729      2.6841686391647857      18.390070000000001
    59   1      26.219104230936729      2.6841686391647857      14.287419999999999
    60   1         29.874884635887      1.0846678713057507      22.492730000000002
    61   1         29.874884635887      1.0846678713057507      18.390070000000001
    62   1      2.6849250415644148      8.6253836797953696      22.492730000000002
    63   1      2.6849250415644148      8.6253836797953696      18.390070000000001
    64   1      2.6849250415644148      8.6253836797953696      14.287419999999999
    65   1      7.9402062143737187      10.681663316886606      18.390070000000001
    66   1      7.9402062143737187      10.681663316886606      14.287419999999999
    67   1      64.033888741088589      55.237082862359664      11.292730000000001
    68   1      64.033888741088589      55.237082862359664      7.1900700000000004
    69   1      64.033888741088589      55.237082862359664      3.0874199999999998
    70   1      62.434469282193028      58.892898768406667      11.292730000000001
    71   1      62.434469282193028      58.892898768406667      7.1900700000000004
    72   1      62.434469282193028      58.892898768406667      3.0874199999999998
    73   1       15.25176702427426       7.482661781168539      14.287419999999999
    74   1      11.595986619323989      9.0821625490275721      22.492730000000002
    75   1      11.595986619323989      9.0821625490275721      18.390070000000001
    76   1      11.595986619323989      9.0821625490275721      14.287419999999999
    77   1      18.907543421036188      5.8831701748828538      22.492730000000002
    78   1      18.907543421036188      5.8831701748828538      18.390070000000001
    79   1      18.907543421036188      5.8831701748828538      14.287419999999999
    80   1       15.25176702427426       7.482661781168539      22.492730000000002
    81   1      31.474385403746034      4.7404482762560205      18.390070000000001
    82   1      31.474385403746034      4.7404482762560205      14.287419999999999
    83   1      38.785942205458234      1.5414559021113035      22.492730000000002
    84   1      38.785942205458234      1.5414559021113035      18.390070000000001
    85   1      38.785942205458234      1.5414559021113035      14.287419999999999
    86   1      35.130165808696304      3.1409475083969896      22.492730000000002
    87   1      65.633308199984143      51.581266956312668      11.292730000000001
    88   1      65.633308199984143      51.581266956312668      7.1900700000000004
    89   1      65.633308199984143      51.581266956312668      3.0874199999999998
    90   1      4.2844258094234497      12.281164084745642      22.492730000000002
    91   1      4.2844258094234497      12.281164084745642      18.390070000000001
    92   1      4.2844258094234497      12.281164084745642      14.287419999999999
    93   1      0.6286454044731784      13.880664852604676      22.492730000000002
    94   1      0.6286454044731784      13.880664852604676      18.390070000000001
    95   1      0.6286454044731784      13.880664852604676      14.287419999999999
    96   1      7.9402062143737187      10.681663316886606      22.492730000000002
    97   1      16.851267792133292      11.138442186118809      22.492730000000002
    98   1      16.851267792133292      11.138442186118809      18.390070000000001
    99   1      16.851267792133292      11.138442186118809      14.287419999999999
   100   1      24.162824593845496      7.9394498119740904      22.492730000000002
   101   1      24.162824593845496      7.9394498119740904      18.390070000000001
   102   1      24.162824593845496      7.9394498119740904      14.287419999999999
   103   1      20.507044188895225      9.5389505798331253      22.492730000000002
   104   1       67.23272765887971      47.925451050265671      11.292730000000001
   105   1       67.23272765887971      47.925451050265671      7.1900700000000004
   106   1       67.23272765887971      47.925451050265671      3.0874199999999998
   107   1      27.818604998795767      6.3399490441150554      22.492730000000002
   108   1      27.818604998795767      6.3399490441150554      18.390070000000001
   109   1      27.818604998795767      6.3399490441150554      14.287419999999999
   110   1      35.130165808696304      3.1409475083969896      18.390070000000001
   111   1      35.130165808696304      3.1409475083969896      14.287419999999999
   112   1      31.474385403746034      4.7404482762560205      22.492730000000002
   113   1      55.579814458354925      64.605111121605105      3.0874199999999998
   114   1      53.980394999459357      68.260927027652102      11.292730000000001
   115   1      53.980394999459357      68.260927027652102      7.1900700000000004
   116   1      53.980394999459357      68.260927027652102      3.0874199999999998
   117   1      68.832147117775264      44.269635144218675      11.292730000000001
   118   1      68.832147117775264      44.269635144218675      7.1900700000000004
   119   1      68.832147117775264      44.269635144218675      3.0874199999999998
   120   1      9.5397069822327545      14.337443721836877      22.492730000000002
   121   1      9.5397069822327545      14.337443721836877      18.390070000000001
   122   1      9.5397069822327545      14.337443721836877      14.287419999999999
   123   1      5.8839265772824829      15.936944489695911      22.492730000000002
   124   1      13.195487387183022      12.737942953977843      22.492730000000002
   125   1      13.195487387183022      12.737942953977843      18.390070000000001
   126   1      13.195487387183022      12.737942953977843      14.287419999999999
   127   1      20.507044188895225      9.5389505798331253      18.390070000000001
   128   1      20.507044188895225      9.5389505798331253      14.287419999999999
   129   1       51.35278418816808     0.39873400348446936      14.287419999999999
   130   1      47.697003783217809      1.9982347713435058      22.492730000000002
   131   1      47.697003783217809      1.9982347713435058      18.390070000000001
   132   1      47.697003783217809      1.9982347713435058      14.287419999999999
   133   1       51.35278418816808     0.39873400348446936      22.492730000000002
   134   1       51.35278418816808     0.39873400348446936      18.390070000000001
   135   1      57.179233917250478      60.949295215558109      11.292730000000001
   136   1      57.179233917250478      60.949295215558109      7.1900700000000004
   137   1      57.179233917250478      60.949295215558109      3.0874199999999998
   138   1      5.8839265772824829      15.936944489695911      18.390070000000001
   139   1      5.8839265772824829      15.936944489695911      14.287419999999999
   140   1      2.2281461723322131      17.536445257554945      22.492730000000002
   141   1      2.2281461723322131      17.536445257554945      18.390070000000001
   142   1      2.2281461723322131      17.536445257554945      14.287419999999999
   143   1      55.579814458354925      64.605111121605105      11.292730000000001
   144   1      55.579814458354925      64.605111121605105      7.1900700000000004
   145   1      29.418105766654797      9.9957294490653261      14.287419999999999
   146   1       36.72966256836699      6.7967370749206042      14.287419999999999
   147   1      33.073886171605068      8.3962286812062903      22.492730000000002
   148   1      33.073886171605068      8.3962286812062903      18.390070000000001
   149   1      33.073886171605068      8.3962286812062903      14.287419999999999
   150   1      58.778653376146046      57.293479309511113      11.292730000000001
   151   1      58.778653376146046      57.293479309511113      7.1900700000000004
   152   1      58.778653376146046      57.293479309511113      3.0874199999999998
   153   1      40.385442973317261      5.1972363070615701      22.492730000000002
   154   1      40.385442973317261      5.1972363070615701      18.390070000000001
   155   1      40.385442973317261      5.1972363070615701      14.287419999999999
   156   1       36.72966256836699      6.7967370749206042      22.492730000000002
   157   1       36.72966256836699      6.7967370749206042      18.390070000000001
   158   1      44.041223378267539      3.5977355392025405      22.492730000000002
   159   1      44.041223378267539      3.5977355392025405      18.390070000000001
   160   1      44.041223378267539      3.5977355392025405      14.287419999999999
   161   1      18.450764551803989      14.794231752642428      22.492730000000002
   162   1      18.450764551803989      14.794231752642428      18.390070000000001
   163   1      18.450764551803989      14.794231752642428      14.287419999999999
   164   1      61.977492293937168      49.981847497417114      11.292730000000001
   165   1      61.977492293937168      49.981847497417114      7.1900700000000004
   166   1      61.977492293937168      49.981847497417114      3.0874199999999998
   167   1      60.378072835041607       53.63766340346411      11.292730000000001
   168   1      60.378072835041607       53.63766340346411      7.1900700000000004
   169   1      60.378072835041607       53.63766340346411      3.0874199999999998
   170   1       25.76232536170453      11.595230216924358      22.492730000000002
   171   1       25.76232536170453      11.595230216924358      18.390070000000001
   172   1       25.76232536170453      11.595230216924358      14.287419999999999
   173   1      22.106544956754259      13.194730984783394      22.492730000000002
   174   1      22.106544956754259      13.194730984783394      18.390070000000001
   175   1      29.418105766654797      9.9957294490653261      22.492730000000002
   176   1      29.418105766654797      9.9957294490653261      18.390070000000001
   177   1      3.8276377786178974      21.192221654316874      22.492730000000002
   178   1      3.8276377786178974      21.192221654316874      18.390070000000001
   179   1      3.8276377786178974      21.192221654316874      14.287419999999999
   180   1     0.17186138185596656      22.791713260602563      22.492730000000002
   181   1      63.576911752832729      46.326031591370118      11.292730000000001
   182   1      63.576911752832729      46.326031591370118      7.1900700000000004
   183   1      63.576911752832729      46.326031591370118      3.0874199999999998
   184   1       11.13919858851844      17.993220118598806      22.492730000000002
   185   1       11.13919858851844      17.993220118598806      18.390070000000001
   186   1       11.13919858851844      17.993220118598806      14.287419999999999
   187   1      7.4834181835681681       19.59272088645784      22.492730000000002
   188   1      7.4834181835681681       19.59272088645784      18.390070000000001
   189   1      14.794988155042057      16.393723358928113      22.492730000000002
   190   1      14.794988155042057      16.393723358928113      18.390070000000001
   191   1      14.794988155042057      16.393723358928113      14.287419999999999
   192   1      22.106544956754259      13.194730984783394      14.287419999999999
   193   1      52.952284956027107      4.0545144084347386      14.287419999999999
   194   1      49.296504551076836      5.6540151762937718      22.492730000000002
   195   1      49.296504551076836      5.6540151762937718      18.390070000000001
   196   1      49.296504551076836      5.6540151762937718      14.287419999999999
   197   1      56.608061352789043      2.4550228021490548      22.492730000000002
   198   1      56.608061352789043      2.4550228021490548      18.390070000000001
   199   1      56.608061352789043      2.4550228021490548      14.287419999999999
   200   1      65.176331211728282      42.670215685323122      11.292730000000001
   201   1      65.176331211728282      42.670215685323122      7.1900700000000004
   202   1      65.176331211728282      42.670215685323122      3.0874199999999998
   203   1      60.263841757739314     0.85552203429002172      22.492730000000002
   204   1      60.263841757739314     0.85552203429002172      18.390070000000001
   205   1      60.263841757739314     0.85552203429002172      14.287419999999999
   206   1     0.17186138185596656      22.791713260602563      18.390070000000001
   207   1     0.17186138185596656      22.791713260602563      14.287419999999999
   208   1      7.4834181835681681       19.59272088645784      14.287419999999999
   209   1      34.673386939464102      12.052009086156561      18.390070000000001
   210   1      34.673386939464102      12.052009086156561      14.287419999999999
   211   1      68.375170129519418      35.358583873229122      11.292730000000001
   212   1      68.375170129519418      35.358583873229122      7.1900700000000004
   213   1      68.375170129519418      35.358583873229122      3.0874199999999998
   214   1       66.77575067062385      39.014399779276118      11.292730000000001
   215   1       66.77575067062385      39.014399779276118      7.1900700000000004
   216   1       66.77575067062385      39.014399779276118      3.0874199999999998
   217   1      41.984943741176302      8.8530167120118435      22.492730000000002
   218   1      41.984943741176302      8.8530167120118435      18.390070000000001
   219   1      41.984943741176302      8.8530167120118435      14.287419999999999
   220   1      45.640724146126573      7.2535159441528068      22.492730000000002
   221   1      45.640724146126573      7.2535159441528068      18.390070000000001
   222   1      45.640724146126573      7.2535159441528068      14.287419999999999
   223   1      52.952284956027107      4.0545144084347386      22.492730000000002
   224   1      52.952284956027107      4.0545144084347386      18.390070000000001
   225   1      20.050256158089674      18.450008149404358      22.492730000000002
   226   1      20.050256158089674      18.450008149404358      18.390070000000001
   227   1      20.050256158089674      18.450008149404358      14.287419999999999
   228   1      27.361826129563564      15.251010621874631      22.492730000000002
   229   1      27.361826129563564      15.251010621874631      18.390070000000001
   230   1      27.361826129563564      15.251010621874631      14.287419999999999
   231   1      50.324579093412346      66.661507568756534      11.292730000000001
   232   1      50.324579093412346      66.661507568756534      7.1900700000000004
   233   1      50.324579093412346      66.661507568756534      3.0874199999999998
   234   1      31.017606534513831      13.651509854015597      22.492730000000002
   235   1      31.017606534513831      13.651509854015597      18.390070000000001
   236   1      31.017606534513831      13.651509854015597      14.287419999999999
   237   1      38.329163336226031      10.452517479870876      22.492730000000002
   238   1      38.329163336226031      10.452517479870876      18.390070000000001
   239   1      38.329163336226031      10.452517479870876      14.287419999999999
   240   1      34.673386939464102      12.052009086156561      22.492730000000002
   241   1      9.0829189514272013      23.248501291408111      14.287419999999999
   242   1      5.4271385464769333      24.848002059267145      22.492730000000002
   243   1      5.4271385464769333      24.848002059267145      18.390070000000001
   244   1      5.4271385464769333      24.848002059267145      14.287419999999999
   245   1      12.738699356377472      21.649000523549077      22.492730000000002
   246   1      12.738699356377472      21.649000523549077      18.390070000000001
   247   1      12.738699356377472      21.649000523549077      14.287419999999999
   248   1      51.923998552307914      63.005691662709538      11.292730000000001
   249   1      51.923998552307914      63.005691662709538      7.1900700000000004
   250   1      51.923998552307914      63.005691662709538      3.0874199999999998
   251   1      16.394479761327741      20.049499755690043      22.492730000000002
   252   1      16.394479761327741      20.049499755690043      18.390070000000001
   253   1      16.394479761327741      20.049499755690043      14.287419999999999
   254   1      23.706045724613293      16.850511389733665      22.492730000000002
   255   1      23.706045724613293      16.850511389733665      18.390070000000001
   256   1      23.706045724613293      16.850511389733665      14.287419999999999
   257   1      55.122837470099036      55.694059850615545      7.1900700000000004
   258   1      55.122837470099036      55.694059850615545      3.0874199999999998
   259   1      53.523418011203468      59.349875756662541      11.292730000000001
   260   1      53.523418011203468      59.349875756662541      7.1900700000000004
   261   1      53.523418011203468      59.349875756662541      3.0874199999999998
   262   1      69.174903335498897      1.3123009035222257      22.492730000000002
   263   1      69.174903335498897      1.3123009035222257      18.390070000000001
   264   1      69.174903335498897      1.3123009035222257      14.287419999999999
   265   1      65.519122930548619      2.9118016713812551      22.492730000000002
   266   1      65.519122930548619      2.9118016713812551      18.390070000000001
   267   1      65.519122930548619      2.9118016713812551      14.287419999999999
   268   1      1.7713581415266619      26.447502827126179      22.492730000000002
   269   1      1.7713581415266619      26.447502827126179      18.390070000000001
   270   1      1.7713581415266619      26.447502827126179      14.287419999999999
   271   1      9.0829189514272013      23.248501291408111      22.492730000000002
   272   1      9.0829189514272013      23.248501291408111      18.390070000000001
   273   1      54.551781715697807      7.7103039749583573      22.492730000000002
   274   1      54.551781715697807      7.7103039749583573      18.390070000000001
   275   1      54.551781715697807      7.7103039749583573      14.287419999999999
   276   1      50.896005318935877      9.3097955812440443      22.492730000000002
   277   1      50.896005318935877      9.3097955812440443      18.390070000000001
   278   1      50.896005318935877      9.3097955812440443      14.287419999999999
   279   1      56.722256928994597      52.038243944568549      11.292730000000001
   280   1      56.722256928994597      52.038243944568549      7.1900700000000004
   281   1      56.722256928994597      52.038243944568549      3.0874199999999998
   282   1      58.207562120648078       6.110803207099325      22.492730000000002
   283   1      58.207562120648078       6.110803207099325      18.390070000000001
   284   1      58.207562120648078       6.110803207099325      14.287419999999999
   285   1      61.863342525598341      4.5113024392402918      22.492730000000002
   286   1      61.863342525598341      4.5113024392402918      18.390070000000001
   287   1      61.863342525598341      4.5113024392402918      14.287419999999999
   288   1      55.122837470099036      55.694059850615545      11.292730000000001
   289   1      32.617098140799513      17.307286250777526      14.287419999999999
   290   1      39.928664104085065      14.108297884821148      22.492730000000002
   291   1      39.928664104085065      14.108297884821148      18.390070000000001
   292   1      39.928664104085065      14.108297884821148      14.287419999999999
   293   1      36.272883699134795       15.70779865268018      22.492730000000002
   294   1      36.272883699134795       15.70779865268018      18.390070000000001
   295   1      36.272883699134795       15.70779865268018      14.287419999999999
   296   1      58.321676387890157      48.382428038521553      11.292730000000001
   297   1      58.321676387890157      48.382428038521553      7.1900700000000004
   298   1      58.321676387890157      48.382428038521553      3.0874199999999998
   299   1      43.584444509035336      12.508797116962112      22.492730000000002
   300   1      43.584444509035336      12.508797116962112      18.390070000000001
   301   1      43.584444509035336      12.508797116962112      14.287419999999999
   302   1      47.240224913985607      10.909296349103078      22.492730000000002
   303   1      47.240224913985607      10.909296349103078      18.390070000000001
   304   1      47.240224913985607      10.909296349103078      14.287419999999999
   305   1      61.520515305681279      41.070796226427554      7.1900700000000004
   306   1      61.520515305681279      41.070796226427554      3.0874199999999998
   307   1      59.921095846785718       44.72661213247455      11.292730000000001
   308   1      59.921095846785718       44.72661213247455      7.1900700000000004
   309   1      59.921095846785718       44.72661213247455      3.0874199999999998
   310   1      25.305537330898975      20.506287786495594      22.492730000000002
   311   1      25.305537330898975      20.506287786495594      18.390070000000001
   312   1      25.305537330898975      20.506287786495594      14.287419999999999
   313   1      21.649756925948704      22.105788554354628      22.492730000000002
   314   1      21.649756925948704      22.105788554354628      18.390070000000001
   315   1      21.649756925948704      22.105788554354628      14.287419999999999
   316   1      28.961317735849246       18.90678701863656      22.492730000000002
   317   1      28.961317735849246       18.90678701863656      18.390070000000001
   318   1      28.961317735849246       18.90678701863656      14.287419999999999
   319   1      32.617098140799513      17.307286250777526      22.492730000000002
   320   1      32.617098140799513      17.307286250777526      18.390070000000001
   321   1      10.682419719286235      26.904281696358382      22.492730000000002
   322   1      10.682419719286235      26.904281696358382      18.390070000000001
   323   1      10.682419719286235      26.904281696358382      14.287419999999999
   324   1      7.0266393143359638      28.503782464217416      22.492730000000002
   325   1      7.0266393143359638      28.503782464217416      18.390070000000001
   326   1      7.0266393143359638      28.503782464217416      14.287419999999999
   327   1       63.11993476457684      37.414980320380558      11.292730000000001
   328   1       63.11993476457684      37.414980320380558      7.1900700000000004
   329   1       63.11993476457684      37.414980320380558      3.0874199999999998
   330   1      14.338200124236508      25.304780928499351      22.492730000000002
   331   1      14.338200124236508      25.304780928499351      18.390070000000001
   332   1      14.338200124236508      25.304780928499351      14.287419999999999
   333   1      17.993980529186778      23.705280160640314      22.492730000000002
   334   1      17.993980529186778      23.705280160640314      18.390070000000001
   335   1      17.993980529186778      23.705280160640314      14.287419999999999
   336   1      61.520515305681279      41.070796226427554      11.292730000000001
   337   1      59.807062888507112      9.7665836120495957      14.287419999999999
   338   1      56.151282483556841      11.366084379908632      22.492730000000002
   339   1      56.151282483556841      11.366084379908632      18.390070000000001
   340   1      56.151282483556841      11.366084379908632      14.287419999999999
   341   1      63.462843293457382      8.1670828441905616      22.492730000000002
   342   1      63.462843293457382      8.1670828441905616      18.390070000000001
   343   1      63.462843293457382      8.1670828441905616      14.287419999999999
   344   1      64.719354223472408      33.759164414333554      11.292730000000001
   345   1      64.719354223472408      33.759164414333554      7.1900700000000004
   346   1      64.719354223472408      33.759164414333554      3.0874199999999998
   347   1       67.11862369840766      6.5675820763315285      22.492730000000002
   348   1       67.11862369840766      6.5675820763315285      18.390070000000001
   349   1       67.11862369840766      6.5675820763315285      14.287419999999999
   350   1      3.3708589093856953       30.10328323207645      22.492730000000002
   351   1      3.3708589093856953       30.10328323207645      18.390070000000001
   352   1      3.3708589093856953       30.10328323207645      14.287419999999999
   353   1      41.528155710370747      17.764074281583078      18.390070000000001
   354   1      41.528155710370747      17.764074281583078      14.287419999999999
   355   1      67.918189133075188      26.447541763812911      11.292730000000001
   356   1      67.918189133075188      26.447541763812911      7.1900700000000004
   357   1      67.918189133075188      26.447541763812911      3.0874199999999998