(written by ASE)

9048 atoms
3 atom types

0.0       77.47914717279987  xlo xhi
0.0       77.47914717279987  ylo yhi
0.0                      50  zlo zhi

Masses

     1       137.3269999646734 # Ba
     2      15.998999995884349 # O
     3      47.866999987686484 # Ti

Atoms # atomic

     1   1      75.578129380145327      71.981617972972899      11.292730000000001
     2   1      75.578129380145327      71.981617972972899      7.1900700000000004
     3   1      75.578129380145327      71.981617972972899      3.0874199999999998
     4   1      35.913737117855376      47.319826717425507      11.292730000000001
     5   1      35.913737117855376      47.319826717425507      7.1900700000000004
     6   1      35.913737117855376      47.319826717425507      3.0874199999999998
     7   1       34.26961897121685      55.129387913958503      7.1900700000000004
     8   1       34.26961897121685      55.129387913958503      3.0874199999999998
     9   1      35.091677014483707      51.224612208440931      11.292730000000001
    10   1      35.091677014483707      51.224612208440931      7.1900700000000004
    11   1      35.091677014483707      51.224612208440931      3.0874199999999998
    12   1      33.447558867845181      59.034173404973927      11.292730000000001
    13   1      33.447558867845181      59.034173404973927      7.1900700000000004
    14   1      33.447558867845181      59.034173404973927      3.0874199999999998
    15   1       34.26961897121685      55.129387913958503      11.292730000000001
    16   1      32.625498764473512      62.938958895989352      11.292730000000001
    17   1      4.6790012052418728      75.475161736533195      14.287419999999999
    18   1      75.783652131381288      51.635642260126765      11.292730000000001
    19   1      75.783652131381288      51.635642260126765      7.1900700000000004
    20   1      75.783652131381288      51.635642260126765      3.0874199999999998
    21   1      76.605712234752957      47.730856769111341      11.292730000000001
    22   1      76.605712234752957      47.730856769111341      7.1900700000000004
    23   1      76.605712234752957      47.730856769111341      3.0874199999999998
    24   1      77.427772338124626      43.826071278095917      11.292730000000001
    25   1      77.427772338124626      43.826071278095917      7.1900700000000004
    26   1      77.427772338124626      43.826071278095917      3.0874199999999998
    27   1      76.400189483516996      68.076832481957467      11.292730000000001
    28   1      76.400189483516996      68.076832481957467      7.1900700000000004
    29   1      76.400189483516996      68.076832481957467      3.0874199999999998
    30   1      77.222249586888651       64.17204699094205      11.292730000000001
    31   1      77.222249586888651       64.17204699094205      7.1900700000000004
    32   1      74.756069276773658      75.886403463988316      3.0874199999999998
    33   1      7.7615025564874847      70.748164209416331      22.492730000000002
    34   1      7.7615025564874847      70.748164209416331      18.390070000000001
    35   1      7.7615025564874847      70.748164209416331      14.287419999999999
    36   1      8.5837506444231124      74.652913648597576      22.492730000000002
    37   1      8.5837506444231124      74.652913648597576      18.390070000000001
    38   1      8.5837506444231124      74.652913648597576      14.287419999999999
    39   1      73.317473881371086      63.349988947675186      11.292730000000001
    40   1      73.317473881371086      63.349988947675186      7.1900700000000004
    41   1      73.317473881371086      63.349988947675186      3.0874199999999998
    42   1     0.56778806195248199       55.95143050643928      22.492730000000002
    43   1     0.56778806195248199       55.95143050643928      18.390070000000001
    44   1     0.56778806195248199       55.95143050643928      14.287419999999999
    45   1      2.2122765124306931      63.760917539199106      14.287419999999999
    46   1       1.390028424495068      59.856168100017861      22.492730000000002
    47   1       1.390028424495068      59.856168100017861      18.390070000000001
    48   1       1.390028424495068      59.856168100017861      14.287419999999999
    49   1      2.8280490506555065      47.319695385743842      14.287419999999999
    50   1      4.4725375011337212       55.12918241850366      22.492730000000002
    51   1      4.4725375011337212       55.12918241850366      18.390070000000001
    52   1      4.4725375011337212       55.12918241850366      14.287419999999999
    53   1      5.2947758035714996      59.033929797580086      22.492730000000002
    54   1      5.2947758035714996      59.033929797580086      18.390070000000001
    55   1      5.2947758035714996      59.033929797580086      14.287419999999999
    56   1      72.495413777999431      67.254774438690617      11.292730000000001
    57   1      72.495413777999431      67.254774438690617      7.1900700000000004
    58   1      72.495413777999431      67.254774438690617      3.0874199999999998
    59   1      6.9392621939449013      66.843426615837757      22.492730000000002
    60   1      6.9392621939449013      66.843426615837757      18.390070000000001
    61   1      6.9392621939449013      66.843426615837757      14.287419999999999
    62   1      6.1170141060092744      62.938677176656519      22.492730000000002
    63   1      6.1170141060092744      62.938677176656519      18.390070000000001
    64   1      6.1170141060092744      62.938677176656519      14.287419999999999
    65   1      1.1835626602821065      39.510198567486164      14.287419999999999
    66   1     0.36132435784432926      35.605451188409745      22.492730000000002
    67   1      70.851293571256093      75.064345420721452      11.292730000000001
    68   1      70.851293571256093      75.064345420721452      7.1900700000000004
    69   1      70.851293571256093      75.064345420721452      3.0874199999999998
    70   1      71.673353674627762      71.159559929706035      11.292730000000001
    71   1      71.673353674627762      71.159559929706035      7.1900700000000004
    72   1      71.673353674627762      71.159559929706035      3.0874199999999998
    73   1      2.0058009627198832      43.414945946562597      22.492730000000002
    74   1      2.0058009627198832      43.414945946562597      18.390070000000001
    75   1      2.0058009627198832      43.414945946562597      14.287419999999999
    76   1      3.6502894131980943      51.224432979322415      22.492730000000002
    77   1      3.6502894131980943      51.224432979322415      18.390070000000001
    78   1      3.6502894131980943      51.224432979322415      14.287419999999999
    79   1      2.8280490506555065      47.319695385743842      22.492730000000002
    80   1      2.8280490506555065      47.319695385743842      18.390070000000001
    81   1      10.021763545190511      62.116429088720892      18.390070000000001
    82   1      10.021763545190511      62.116429088720892      14.287419999999999
    83   1      11.666249935563917      69.925925906978563      14.287419999999999
    84   1       10.84401163312614      66.021178527902123      22.492730000000002
    85   1       10.84401163312614      66.021178527902123      18.390070000000001
    86   1       10.84401163312614      66.021178527902123      14.287419999999999
    87   1      76.811227260595871      27.384869210662554      3.0874199999999998
    88   1      12.488488238001691      73.830673286054989      22.492730000000002
    89   1      12.488488238001691      73.830673286054989      18.390070000000001
    90   1      12.488488238001691      73.830673286054989      14.287419999999999
    91   1      11.666249935563917      69.925925906978563      22.492730000000002
    92   1      11.666249935563917      69.925925906978563      18.390070000000001
    93   1     0.36132435784432926      35.605451188409745      18.390070000000001
    94   1     0.36132435784432926      35.605451188409745      14.287419999999999
    95   1      1.1835626602821065      39.510198567486164      22.492730000000002
    96   1      1.1835626602821065      39.510198567486164      18.390070000000001
    97   1      7.5550367922745236      50.402194676884641      18.390070000000001
    98   1      7.5550367922745236      50.402194676884641      14.287419999999999
    99   1      75.167107053852533      35.194440192693399      11.292730000000001
   100   1      75.167107053852533      35.194440192693399      7.1900700000000004
   101   1      75.167107053852533      35.194440192693399      3.0874199999999998
   102   1      75.989167157224202      31.289654701677978      11.292730000000001
   103   1      75.989167157224202      31.289654701677978      7.1900700000000004
   104   1      75.989167157224202      31.289654701677978      3.0874199999999998
   105   1      76.811227260595871      27.384869210662554      11.292730000000001
   106   1      76.811227260595871      27.384869210662554      7.1900700000000004
   107   1      9.1995231826479262      58.211691495142304      22.492730000000002
   108   1      9.1995231826479262      58.211691495142304      18.390070000000001
   109   1      9.1995231826479262      58.211691495142304      14.287419999999999
   110   1      8.3772750947123029      54.306942055961073      22.492730000000002
   111   1      8.3772750947123029      54.306942055961073      18.390070000000001
   112   1      10.021763545190511      62.116429088720892      22.492730000000002
   113   1      73.522986847109195      43.004011174724248      11.292730000000001
   114   1      73.522986847109195      43.004011174724248      7.1900700000000004
   115   1      73.522986847109195      43.004011174724248      3.0874199999999998
   116   1      74.345046950480864      39.099225683708831      11.292730000000001
   117   1      74.345046950480864      39.099225683708831      7.1900700000000004
   118   1      74.345046950480864      39.099225683708831      3.0874199999999998
   119   1      5.9105504019011219      42.592697858626977      22.492730000000002
   120   1      5.9105504019011219      42.592697858626977      18.390070000000001
   121   1      5.9105504019011219      42.592697858626977      14.287419999999999
   122   1      5.0883100393585359      38.687960265048389      22.492730000000002
   123   1      5.0883100393585359      38.687960265048389      18.390070000000001
   124   1      6.7327984898367488      46.497447297808208      22.492730000000002
   125   1      6.7327984898367488      46.497447297808208      18.390070000000001
   126   1      6.7327984898367488      46.497447297808208      14.287419999999999
   127   1      8.3772750947123029      54.306942055961073      14.287419999999999
   128   1      7.5550367922745236      50.402194676884641      22.492730000000002
   129   1     0.97709689606914429      19.164229034954474      14.287419999999999
   130   1      2.6215755610495086       26.97371400760948      22.492730000000002
   131   1      2.6215755610495086       26.97371400760948      18.390070000000001
   132   1      2.6215755610495086       26.97371400760948      14.287419999999999
   133   1      1.7993351985069208      23.068976414030903      22.492730000000002
   134   1      1.7993351985069208      23.068976414030903      18.390070000000001
   135   1      72.700926743737526      46.908796665739672      11.292730000000001
   136   1      72.700926743737526      46.908796665739672      7.1900700000000004
   137   1      72.700926743737526      46.908796665739672      3.0874199999999998
   138   1      3.4438236489851328      30.878463446790722      22.492730000000002
   139   1      3.4438236489851328      30.878463446790722      18.390070000000001
   140   1      3.4438236489851328      30.878463446790722      14.287419999999999
   141   1      5.0883100393585359      38.687960265048389      14.287419999999999
   142   1       4.266061951422909      34.783210825867158      22.492730000000002
   143   1       4.266061951422909      34.783210825867158      18.390070000000001
   144   1       4.266061951422909      34.783210825867158      14.287419999999999
   145   1      15.570997314640344      69.103687604540795      14.287419999999999
   146   1      17.215485765118558      76.913174637300614      14.287419999999999
   147   1      16.393237677182931      73.008425198119369      22.492730000000002
   148   1      16.393237677182931      73.008425198119369      18.390070000000001
   149   1      16.393237677182931      73.008425198119369      14.287419999999999
   150   1      17.215485765118558      76.913174637300614      22.492730000000002
   151   1      17.215485765118558      76.913174637300614      18.390070000000001
   152   1      71.878866640365857      50.813582156755096      11.292730000000001
   153   1      71.878866640365857      50.813582156755096      7.1900700000000004
   154   1      71.878866640365857      50.813582156755096      3.0874199999999998
   155   1      0.1548488081335187      15.259479595773232      22.492730000000002
   156   1      0.1548488081335187      15.259479595773232      18.390070000000001
   157   1      0.1548488081335187      15.259479595773232      14.287419999999999
   158   1      1.7993351985069208      23.068976414030903      14.287419999999999
   159   1     0.97709689606914429      19.164229034954474      22.492730000000002
   160   1     0.97709689606914429      19.164229034954474      18.390070000000001
   161   1      13.104272621829168      57.389443407206684      22.492730000000002
   162   1      13.104272621829168      57.389443407206684      18.390070000000001
   163   1      13.104272621829168      57.389443407206684      14.287419999999999
   164   1      70.234746433622519      58.623153138785945      11.292730000000001
   165   1      70.234746433622519      58.623153138785945      7.1900700000000004
   166   1      70.234746433622519      58.623153138785945      3.0874199999999998
   167   1      71.056806536994188      54.718367647770521      11.292730000000001
   168   1      71.056806536994188      54.718367647770521      7.1900700000000004
   169   1      71.056806536994188      54.718367647770521      3.0874199999999998
   170   1      14.748749226704719      65.198938165359536      22.492730000000002
   171   1      14.748749226704719      65.198938165359536      18.390070000000001
   172   1      14.748749226704719      65.198938165359536      14.287419999999999
   173   1      13.926510924266942      61.294190786283117      22.492730000000002
   174   1      13.926510924266942      61.294190786283117      18.390070000000001
   175   1      15.570997314640344      69.103687604540795      22.492730000000002
   176   1      15.570997314640344      69.103687604540795      18.390070000000001
   177   1      10.637536083415332      45.675206935265621      14.287419999999999
   178   1      9.8152977809775521      41.770459556189195      22.492730000000002
   179   1      9.8152977809775521      41.770459556189195      18.390070000000001
   180   1      9.8152977809775521      41.770459556189195      14.287419999999999
   181   1      69.412688390355655      62.527928844303517      11.292730000000001
   182   1      69.412688390355655      62.527928844303517      7.1900700000000004
   183   1      69.412688390355655      62.527928844303517      3.0874199999999998
   184   1      11.459784171350952      49.579956374446866      22.492730000000002
   185   1      11.459784171350952      49.579956374446866      18.390070000000001
   186   1      11.459784171350952      49.579956374446866      14.287419999999999
   187   1      10.637536083415332      45.675206935265621      22.492730000000002
   188   1      10.637536083415332      45.675206935265621      18.390070000000001
   189   1      12.282024533893541      53.484693968025439      22.492730000000002
   190   1      12.282024533893541      53.484693968025439      18.390070000000001
   191   1      12.282024533893541      53.484693968025439      14.287419999999999
   192   1      13.926510924266942      61.294190786283117      14.287419999999999
   193   1      5.7040846376881618      22.246728326095276      14.287419999999999
   194   1      7.3485710280615626      30.056225144352947      14.287419999999999
   195   1      6.5263229401259366      26.151475705171709      22.492730000000002
   196   1      6.5263229401259366      26.151475705171709      18.390070000000001
   197   1      6.5263229401259366      26.151475705171709      14.287419999999999
   198   1         68.590628286984      66.432714335318948      11.292730000000001
   199   1         68.590628286984      66.432714335318948      7.1900700000000004
   200   1         68.590628286984      66.432714335318948      3.0874199999999998
   201   1      8.1708113906041504      33.960962737931524      22.492730000000002
   202   1      8.1708113906041504      33.960962737931524      18.390070000000001
   203   1      8.1708113906041504      33.960962737931524      14.287419999999999
   204   1      7.3485710280615626      30.056225144352947      22.492730000000002
   205   1      7.3485710280615626      30.056225144352947      18.390070000000001
   206   1      8.9930594785397773      37.865712177112769      22.492730000000002
   207   1      8.9930594785397773      37.865712177112769      18.390070000000001
   208   1      8.9930594785397773      37.865712177112769      14.287419999999999
   209   1      3.2373578847721722      10.532493914259028      22.492730000000002
   210   1      3.2373578847721722      10.532493914259028      18.390070000000001
   211   1      3.2373578847721722      10.532493914259028      14.287419999999999
   212   1      66.946508080240662      74.242285317349783      11.292730000000001
   213   1      66.946508080240662      74.242285317349783      7.1900700000000004
   214   1      66.946508080240662      74.242285317349783      3.0874199999999998
   215   1      67.768568183612331      70.337499826334366      11.292730000000001
   216   1      67.768568183612331      70.337499826334366      7.1900700000000004
   217   1      67.768568183612331      70.337499826334366      3.0874199999999998
   218   1       4.881836549752534      18.341978886914038      22.492730000000002
   219   1       4.881836549752534      18.341978886914038      18.390070000000001
   220   1       4.881836549752534      18.341978886914038      14.287419999999999
   221   1       4.059596187209948      14.437241293335457      22.492730000000002
   222   1       4.059596187209948      14.437241293335457      18.390070000000001
   223   1      5.7040846376881618      22.246728326095276      22.492730000000002
   224   1      5.7040846376881618      22.246728326095276      18.390070000000001
   225   1      19.475746753821582      68.281439516605161      18.390070000000001
   226   1      19.475746753821582      68.281439516605161      14.287419999999999
   227   1      21.120223358697132      76.090934274758027      14.287419999999999
   228   1       20.29798505625936      72.186186895681587      22.492730000000002
   229   1       20.29798505625936      72.186186895681587      18.390070000000001
   230   1       20.29798505625936      72.186186895681587      14.287419999999999
   231   1       77.01674022633398      7.0388914377116212      3.0874199999999998
   232   1      1.5928714943987701      2.7229970960013583      22.492730000000002
   233   1      1.5928714943987701      2.7229970960013583      18.390070000000001
   234   1      1.5928714943987701      2.7229970960013583      14.287419999999999
   235   1      21.120223358697132      76.090934274758027      22.492730000000002
   236   1      21.120223358697132      76.090934274758027      18.390070000000001
   237   1      2.4151097968365458      6.6277444750777876      22.492730000000002
   238   1      2.4151097968365458      6.6277444750777876      18.390070000000001
   239   1      2.4151097968365458      6.6277444750777876      14.287419999999999
   240   1       4.059596187209948      14.437241293335457      14.287419999999999
   241   1      17.009010215407748      56.567203044664097      18.390070000000001
   242   1      17.009010215407748      56.567203044664097      14.287419999999999
   243   1      75.372620019590642      14.848462419742468      11.292730000000001
   244   1      75.372620019590642      14.848462419742468      7.1900700000000004
   245   1      75.372620019590642      14.848462419742468      3.0874199999999998
   246   1      76.194680122962311      10.943676928727045      11.292730000000001
   247   1      76.194680122962311      10.943676928727045      7.1900700000000004
   248   1      76.194680122962311      10.943676928727045      3.0874199999999998
   249   1       77.01674022633398      7.0388914377116212      11.292730000000001
   250   1       77.01674022633398      7.0388914377116212      7.1900700000000004
   251   1      18.653498665885959      64.376690077423916      22.492730000000002
   252   1      18.653498665885959      64.376690077423916      18.390070000000001
   253   1      18.653498665885959      64.376690077423916      14.287419999999999
   254   1      17.831258303343372      60.471952483845335      22.492730000000002
   255   1      17.831258303343372      60.471952483845335      18.390070000000001
   256   1      19.475746753821582      68.281439516605161      22.492730000000002
   257   1      73.728501872952123      22.658023616275464      11.292730000000001
   258   1      73.728501872952123      22.658023616275464      7.1900700000000004
   259   1      73.728501872952123      22.658023616275464      3.0874199999999998
   260   1      74.550561976323777      18.753238125260044      11.292730000000001
   261   1      74.550561976323777      18.753238125260044      7.1900700000000004
   262   1      74.550561976323777      18.753238125260044      3.0874199999999998
   263   1      15.364533610532195      48.757708286511239      22.492730000000002
   264   1      15.364533610532195      48.757708286511239      18.390070000000001
   265   1      15.364533610532195      48.757708286511239      14.287419999999999
   266   1      14.542285522596568      44.852958847330001      22.492730000000002
   267   1      14.542285522596568      44.852958847330001      18.390070000000001
   268   1      16.186771912969974      52.662455665587665      22.492730000000002
   269   1      16.186771912969974      52.662455665587665      18.390070000000001
   270   1      16.186771912969974      52.662455665587665      14.287419999999999
   271   1      17.831258303343372      60.471952483845335      14.287419999999999
   272   1      17.009010215407748      56.567203044664097      22.492730000000002
   273   1      10.431070319202366      25.329237402733931      14.287419999999999
   274   1       12.07555876968058      33.138724435493749      22.492730000000002
   275   1       12.07555876968058      33.138724435493749      18.390070000000001
   276   1       12.07555876968058      33.138724435493749      14.287419999999999
   277   1      11.253310681744953      29.233974996312508      22.492730000000002
   278   1      11.253310681744953      29.233974996312508      18.390070000000001
   279   1      72.906441769580454      26.562809107290889      11.292730000000001
   280   1      72.906441769580454      26.562809107290889      7.1900700000000004
   281   1      72.906441769580454      26.562809107290889      3.0874199999999998
   282   1      12.897797072118353      37.043471814570175      22.492730000000002
   283   1      12.897797072118353      37.043471814570175      18.390070000000001
   284   1      12.897797072118353      37.043471814570175      14.287419999999999
   285   1      14.542285522596568      44.852958847330001      14.287419999999999
   286   1       13.72004516005398       40.94822125375142      22.492730000000002
   287   1       13.72004516005398       40.94822125375142      18.390070000000001
   288   1       13.72004516005398       40.94822125375142      14.287419999999999
   289   1      7.1420975384555625       9.710243766218591      18.390070000000001
   290   1      7.1420975384555625       9.710243766218591      14.287419999999999
   291   1      8.7865839288289642       17.51974058447626      22.492730000000002
   292   1      8.7865839288289642       17.51974058447626      18.390070000000001
   293   1      8.7865839288289642       17.51974058447626      14.287419999999999
   294   1      7.9643456263911885      13.614993205399831      22.492730000000002
   295   1      7.9643456263911885      13.614993205399831      18.390070000000001
   296   1      72.084381666208785      30.467594598306313      11.292730000000001
   297   1      72.084381666208785      30.467594598306313      7.1900700000000004
   298   1      72.084381666208785      30.467594598306313      3.0874199999999998
   299   1      9.6088320167645911      21.424490023657501      22.492730000000002
   300   1      9.6088320167645911      21.424490023657501      18.390070000000001
   301   1      9.6088320167645911      21.424490023657501      14.287419999999999
   302   1      11.253310681744953      29.233974996312508      14.287419999999999
   303   1      10.431070319202366      25.329237402733931      22.492730000000002
   304   1      10.431070319202366      25.329237402733931      18.390070000000001
   305   1       25.02497279787838      75.268686186822393      22.492730000000002
   306   1       25.02497279787838      75.268686186822393      18.390070000000001
   307   1      70.440261459465447      38.277165580337162      11.292730000000001
   308   1      70.440261459465447      38.277165580337162      7.1900700000000004
   309   1      70.440261459465447      38.277165580337162      3.0874199999999998
   310   1      71.262321562837116      34.372380089321737      11.292730000000001
   311   1      71.262321562837116      34.372380089321737      7.1900700000000004
   312   1      71.262321562837116      34.372380089321737      3.0874199999999998
   313   1      6.3198571759129747       5.805506172640011      22.492730000000002
   314   1      6.3198571759129747       5.805506172640011      18.390070000000001
   315   1      6.3198571759129747       5.805506172640011      14.287419999999999
   316   1      5.4976188734751998      1.9007587935635821      22.492730000000002
   317   1      5.4976188734751998      1.9007587935635821      18.390070000000001
   318   1      5.4976188734751998      1.9007587935635821      14.287419999999999
   319   1      7.9643456263911885      13.614993205399831      14.287419999999999
   320   1      7.1420975384555625       9.710243766218591      22.492730000000002
   321   1      20.913759654588986      55.744954956728471      14.287419999999999
   322   1      22.558246044962395      63.554451774986141      22.492730000000002
   323   1      22.558246044962395      63.554451774986141      18.390070000000001
   324   1      22.558246044962395      63.554451774986141      14.287419999999999
   325   1      21.736007742524617      59.649704395909708      22.492730000000002
   326   1      21.736007742524617      59.649704395909708      18.390070000000001
   327   1      69.618201356093778      42.181951071352586      11.292730000000001
   328   1      69.618201356093778      42.181951071352586      7.1900700000000004
   329   1      69.618201356093778      42.181951071352586      3.0874199999999998
   330   1      23.380484347400159      67.459199154062574      22.492730000000002
   331   1      23.380484347400159      67.459199154062574      18.390070000000001
   332   1      23.380484347400159      67.459199154062574      14.287419999999999
   333   1       25.02497279787838      75.268686186822393      14.287419999999999
   334   1      24.202734495440602      71.363938807745967      22.492730000000002
   335   1      24.202734495440602      71.363938807745967      18.390070000000001
   336   1      24.202734495440602      71.363938807745967      14.287419999999999
   337   1      17.624784813737374      40.125971105710981      18.390070000000001
   338   1      17.624784813737374      40.125971105710981      14.287419999999999
   339   1      19.269271204110773      47.935467923968652      22.492730000000002
   340   1      19.269271204110773      47.935467923968652      18.390070000000001
   341   1      19.269271204110773      47.935467923968652      14.287419999999999
   342   1      18.447032901672998      44.030720544892219      22.492730000000002
   343   1      18.447032901672998      44.030720544892219      18.390070000000001
   344   1      68.796141252722109       46.08673656236801      11.292730000000001
   345   1      68.796141252722109       46.08673656236801      7.1900700000000004
   346   1      68.796141252722109       46.08673656236801      3.0874199999999998
   347   1      20.091519292046399      51.840217363149897      22.492730000000002
   348   1      20.091519292046399      51.840217363149897      18.390070000000001
   349   1      20.091519292046399      51.840217363149897      14.287419999999999
   350   1      21.736007742524617      59.649704395909708      14.287419999999999
   351   1      20.913759654588986      55.744954956728471      22.492730000000002
   352   1      20.913759654588986      55.744954956728471      18.390070000000001
   353   1      67.152021045978771      53.896307544398852      11.292730000000001
   354   1      67.152021045978771      53.896307544398852      7.1900700000000004
   355   1      67.152021045978771      53.896307544398852      3.0874199999999998
   356   1       67.97408114935044      49.991522053383427      11.292730000000001
   357   1       67.97408114935044      49.991522053383427      7.1900700000000004