(written by ASE)

2328 atoms
3 atom types

0.0      39.300676282899715  xlo xhi
0.0      39.300676282899715  ylo yhi
0.0                      50  zlo zhi

Masses

     1       137.3269999646734 # Ba
     2      15.998999995884349 # O
     3      47.866999987686484 # Ti

Atoms # atomic

     1   1      9.8251687604173732      9.8251646990327135      7.1900700000000004
     2   1      9.8251687604173732      9.8251646990327135      3.0874199999999998
     3   1      13.066458323373425      2.5322631823815955      11.292730000000001
     4   1      13.066458323373425      2.5322631823815955      7.1900700000000004
     5   1      13.066458323373425      2.5322631823815955      3.0874199999999998
     6   1       11.44581557258773      6.1787093716494113      11.292730000000001
     7   1      8.4069494824973745      1.7226698101891473      18.390070000000001
     8   1      8.4069494824973745      1.7226698101891473      14.287419999999999
     9   1      35.755508617027587      30.083245789777507      11.292730000000001
    10   1      35.755508617027587      30.083245789777507      7.1900700000000004
    11   1      35.755508617027587      30.083245789777507      3.0874199999999998
    12   1      34.134861804857231      33.729701117160808      11.292730000000001
    13   1      27.042452572665731      24.008177877934113      14.287419999999999
    14   1      22.385181554737635      11.040649808160481      11.292730000000001
    15   1      22.385181554737635      11.040649808160481      7.1900700000000004
    16   1      22.385181554737635      11.040649808160481      3.0874199999999998
    17   1      4.7603601294202766      3.3429927269328261      22.492730000000002
    18   1      4.7603601294202766      3.3429927269328261      18.390070000000001
    19   1      4.7603601294202766      3.3429927269328261      14.287419999999999
    20   1      37.376155429197944      26.436790462394207      11.292730000000001
    21   1      37.376155429197944      26.436790462394207      7.1900700000000004
    22   1      37.376155429197944      26.436790462394207      3.0874199999999998
    23   1      12.053552035074624      0.1023418167146435      22.492730000000002
    24   1      12.053552035074624      0.1023418167146435      18.390070000000001
    25   1      12.053552035074624      0.1023418167146435      14.287419999999999
    26   1      8.4069494824973745      1.7226698101891473      22.492730000000002
    27   1      37.781317132240531      35.350347929331164      11.292730000000001
    28   1      37.781317132240531      35.350347929331164      7.1900700000000004
    29   1      37.781317132240531      35.350347929331164      3.0874199999999998
    30   1      36.160670320070174      38.996803256714465      11.292730000000001
    31   1      36.160670320070174      38.996803256714465      7.1900700000000004
    32   1      9.8251687604173732      9.8251646990327135      11.292730000000001
    33   1      32.109062427759774      28.462603038991812      3.0874199999999998
    34   1      30.488415615589417      32.109058366375109      11.292730000000001
    35   1      30.488415615589417      32.109058366375109      7.1900700000000004
    36   1      30.488415615589417      32.109058366375109      3.0874199999999998
    37   1      20.967070918857303      0.5082711214580744      22.492730000000002
    38   1      20.967070918857303      0.5082711214580744      18.390070000000001
    39   1      20.967070918857303      0.5082711214580744      14.287419999999999
    40   1      1.3167729965230015       19.14388386901226      7.1900700000000004
    41   1      1.3167729965230015       19.14388386901226      3.0874199999999998
    42   1      6.5838751360766592      17.118075353799316      11.292730000000001
    43   1      6.5838751360766592      17.118075353799316      7.1900700000000004
    44   1      6.5838751360766592      17.118075353799316      3.0874199999999998
    45   1      4.9632283239063035      20.764530681182617      11.292730000000001
    46   1      4.9632283239063035      20.764530681182617      7.1900700000000004
    47   1      4.9632283239063035      20.764530681182617      3.0874199999999998
    48   1      4.5580666208637135      11.850973214245659      3.0874199999999998
    49   1      17.320477504395548      2.1286031763172399      22.492730000000002
    50   1      17.320477504395548      2.1286031763172399      18.390070000000001
    51   1      17.320477504395548      2.1286031763172399      14.287419999999999
    52   1      2.9374198086933574       15.49742854162896      7.1900700000000004
    53   1      2.9374198086933574       15.49742854162896      3.0874199999999998
    54   1      3.3425815117359465      24.410986008565921      11.292730000000001
    55   1      3.3425815117359465      24.410986008565921      7.1900700000000004
    56   1      3.3425815117359465      24.410986008565921      3.0874199999999998
    57   1      6.1787134330340709      8.2045178868623552      11.292730000000001
    58   1      6.1787134330340709      8.2045178868623552      7.1900700000000004
    59   1      6.1787134330340709      8.2045178868623552      3.0874199999999998
    60   1      4.5580666208637135      11.850973214245659      11.292730000000001
    61   1      4.5580666208637135      11.850973214245659      7.1900700000000004
    62   1        13.6738749518183      3.7489311697917422      22.492730000000002
    63   1        13.6738749518183      3.7489311697917422      18.390070000000001
    64   1        13.6738749518183      3.7489311697917422      14.287419999999999
    65   1     0.10128788739523342      31.703896663332525      7.1900700000000004
    66   1      2.7340947084330196      8.6099273343692371      14.287419999999999
    67   1      6.3806881228947807      6.9895952795100724      22.492730000000002
    68   1      6.3806881228947807      6.9895952795100724      18.390070000000001
    69   1      6.3806881228947807      6.9895952795100724      14.287419999999999
    70   1      35.350356052100487      21.169692384225208      11.292730000000001
    71   1      35.350356052100487      21.169692384225208      7.1900700000000004
    72   1      35.350356052100487      21.169692384225208      3.0874199999999998
    73   1       10.02728153735654      5.3692632246509078      22.492730000000002
    74   1       10.02728153735654      5.3692632246509078      18.390070000000001
    75   1       10.02728153735654      5.3692632246509078      14.287419999999999
    76   1      33.729709239930131      24.816147711608512      11.292730000000001
    77   1      33.729709239930131      24.816147711608512      7.1900700000000004
    78   1      33.729709239930131      24.816147711608512      3.0874199999999998
    79   1      32.109062427759774      28.462603038991812      11.292730000000001
    80   1      32.109062427759774      28.462603038991812      7.1900700000000004
    81   1      29.880585741255334     0.91420956431699041      22.492730000000002
    82   1      29.880585741255334     0.91420956431699041      18.390070000000001
    83   1      29.880585741255334     0.91420956431699041      14.287419999999999
    84   1      38.591645615056542      13.876790867574091      3.0874199999999998
    85   1      36.971002864270844      17.523237056841907      11.292730000000001
    86   1      36.971002864270844      17.523237056841907      7.1900700000000004
    87   1      36.971002864270844      17.523237056841907      3.0874199999999998
    88   1      2.7340947084330196      8.6099273343692371      22.492730000000002
    89   1      2.7340947084330196      8.6099273343692371      18.390070000000001
    90   1      7.7993602452044275      4.5580625594790547      11.292730000000001
    91   1      7.7993602452044275      4.5580625594790547      7.1900700000000004
    92   1      7.7993602452044275      4.5580625594790547      3.0874199999999998
    93   1      1.7219346995655906      28.057441335949221      11.292730000000001
    94   1      1.7219346995655906      28.057441335949221      7.1900700000000004
    95   1      1.7219346995655906      28.057441335949221      3.0874199999999998
    96   1     0.10128788739523342      31.703896663332525      11.292730000000001
    97   1      23.600666663865397      37.781322208971361      3.0874199999999998
    98   1      38.591645615056542      13.876790867574091      11.292730000000001
    99   1      38.591645615056542      13.876790867574091      7.1900700000000004
   100   1      26.233992326793572      2.5345416191761561      22.492730000000002
   101   1      26.233992326793572      2.5345416191761561      18.390070000000001
   102   1      26.233992326793572      2.5345416191761561      14.287419999999999
   103   1      9.4200029959901226     0.91161637021123854      11.292730000000001
   104   1      9.4200029959901226     0.91161637021123854      7.1900700000000004
   105   1      9.4200029959901226     0.91161637021123854      3.0874199999999998
   106   1     0.10128788739523342      31.703896663332525      3.0874199999999998
   107   1      18.333560462927082     0.50645466716864984      11.292730000000001
   108   1      18.333560462927082     0.50645466716864984      7.1900700000000004
   109   1      18.333560462927082     0.50645466716864984      3.0874199999999998
   110   1     0.91161129348041148      10.230326402075303      11.292730000000001
   111   1     0.91161129348041148      10.230326402075303      7.1900700000000004
   112   1     0.91161129348041148      10.230326402075303      3.0874199999999998
   113   1      16.712913650756725      4.1529099945519512      3.0874199999999998
   114   1      15.294207006677466      7.3955245842535033      22.492730000000002
   115   1      15.294207006677466      7.3955245842535033      18.390070000000001
   116   1      15.294207006677466      7.3955245842535033      14.287419999999999
   117   1       26.84196028820611      30.488411554204752      11.292730000000001
   118   1       26.84196028820611      30.488411554204752      7.1900700000000004
   119   1       26.84196028820611      30.488411554204752      3.0874199999999998
   120   1       22.58739891233181      4.1548736740353194      22.492730000000002
   121   1       22.58739891233181      4.1548736740353194      18.390070000000001
   122   1       22.58739891233181      4.1548736740353194      14.287419999999999
   123   1      18.940809559254713      5.7751965907789993      22.492730000000002
   124   1      25.221313476035753       34.13486688158806      11.292730000000001
   125   1      25.221313476035753       34.13486688158806      7.1900700000000004
   126   1      25.221313476035753       34.13486688158806      3.0874199999999998
   127   1      23.600666663865397      37.781322208971361      11.292730000000001
   128   1      23.600666663865397      37.781322208971361      7.1900700000000004
   129   1      11.647613592215706       9.015856639112668      14.287419999999999
   130   1      30.083253912546823      23.195500899438152      11.292730000000001
   131   1      30.083253912546823      23.195500899438152      7.1900700000000004
   132   1      30.083253912546823      23.195500899438152      3.0874199999999998
   133   1      28.462607100376466      26.841956226821456      11.292730000000001
   134   1      28.462607100376466      26.841956226821456      7.1900700000000004
   135   1      28.462607100376466      26.841956226821456      3.0874199999999998
   136   1      18.940809559254713      5.7751965907789993      18.390070000000001
   137   1      18.940809559254713      5.7751965907789993      14.287419999999999
   138   1      4.1529049178211253      2.9374157473086977      7.1900700000000004
   139   1      4.1529049178211253      2.9374157473086977      3.0874199999999998
   140   1      2.5322581056507683      6.5838710746919995      11.292730000000001
   141   1      2.5322581056507683      6.5838710746919995      7.1900700000000004
   142   1      2.5322581056507683      6.5838710746919995      3.0874199999999998
   143   1      16.712913650756725      4.1529099945519512      11.292730000000001
   144   1      16.712913650756725      4.1529099945519512      7.1900700000000004
   145   1       31.70390072471718      19.549045572054851      3.0874199999999998
   146   1      8.0010201777539454      10.636188693971832      22.492730000000002
   147   1      8.0010201777539454      10.636188693971832      18.390070000000001
   148   1      8.0010201777539454      10.636188693971832      14.287419999999999
   149   1      4.3544176251767004      12.256516687446336      22.492730000000002
   150   1      4.1529049178211253      2.9374157473086977      11.292730000000001
   151   1     0.50644959043782345      1.3167689351383411      11.292730000000001
   152   1     0.50644959043782345      1.3167689351383411      7.1900700000000004
   153   1     0.50644959043782345      1.3167689351383411      3.0874199999999998
   154   1       15.09227089997103      7.7993561838197669      11.292730000000001
   155   1       15.09227089997103      7.7993561838197669      7.1900700000000004
   156   1       15.09227089997103      7.7993561838197669      3.0874199999999998
   157   1       37.17037014517949      36.974228619037476      22.492730000000002
   158   1       37.17037014517949      36.974228619037476      18.390070000000001
   159   1      11.647613592215706       9.015856639112668      22.492730000000002
   160   1      11.647613592215706       9.015856639112668      18.390070000000001
   161   1     0.70782421071493928      13.876848742305501      14.287419999999999
   162   1      38.794113763153497        1.32014293044508      22.492730000000002
   163   1       37.17037014517949      36.974228619037476      14.287419999999999
   164   1       33.52376759260224       38.59455661251198      22.492730000000002
   165   1       33.52376759260224       38.59455661251198      18.390070000000001
   166   1       33.52376759260224       38.59455661251198      14.287419999999999
   167   1      13.471624087800674      11.445811511203068      11.292730000000001
   168   1      13.471624087800674      11.445811511203068      7.1900700000000004
   169   1      13.471624087800674      11.445811511203068      3.0874199999999998
   170   1      11.850977275630317      15.092266838586371      11.292730000000001
   171   1      11.850977275630317      15.092266838586371      7.1900700000000004
   172   1      11.850977275630317      15.092266838586371      3.0874199999999998
   173   1      28.256846184665978      36.568286114793892      22.492730000000002
   174   1      38.794113763153497        1.32014293044508      18.390070000000001
   175   1       31.70390072471718      19.549045572054851      11.292730000000001
   176   1       31.70390072471718      19.549045572054851      7.1900700000000004
   177   1      36.565837099843591      8.6096887280204317      7.1900700000000004
   178   1      36.565837099843591      8.6096887280204317      3.0874199999999998
   179   1      34.945190287673235      12.256144055403732      11.292730000000001
   180   1      34.945190287673235      12.256144055403732      7.1900700000000004
   181   1      34.945190287673235      12.256144055403732      3.0874199999999998
   182   1      38.794113763153497        1.32014293044508      14.287419999999999
   183   1      35.147511210576255      2.9404709239195879      22.492730000000002
   184   1      35.147511210576255      2.9404709239195879      18.390070000000001
   185   1      35.147511210576255      2.9404709239195879      14.287419999999999
   186   1      33.324547536887536      15.902590244671549      11.292730000000001
   187   1      33.324547536887536      15.902590244671549      7.1900700000000004
   188   1      33.324547536887536      15.902590244671549      3.0874199999999998
   189   1      4.3544176251767004      12.256516687446336      18.390070000000001
   190   1      4.3544176251767004      12.256516687446336      14.287419999999999
   191   1     0.70782421071493928      13.876848742305501      22.492730000000002
   192   1     0.70782421071493928      13.876848742305501      18.390070000000001
   193   1      28.256846184665978      36.568286114793892      18.390070000000001
   194   1      28.256846184665978      36.568286114793892      14.287419999999999
   195   1      24.610252770204223      38.188618169653061      22.492730000000002
   196   1      24.610252770204223      38.188618169653061      18.390070000000001
   197   1      24.610252770204223      38.188618169653061      14.287419999999999
   198   1      10.230330463459961      18.738722165969673      11.292730000000001
   199   1      10.230330463459961      18.738722165969673      7.1900700000000004
   200   1      10.230330463459961      18.738722165969673      3.0874199999999998
   201   1      35.550038090320321      33.327635204575714      22.492730000000002
   202   1      35.550038090320321      33.327635204575714      18.390070000000001
   203   1      35.550038090320321      33.327635204575714      14.287419999999999
   204   1      31.903435537743075      34.947963198050211      22.492730000000002
   205   1      31.500917796114496      4.5608029787787503      22.492730000000002
   206   1      31.500917796114496      4.5608029787787503      18.390070000000001
   207   1      31.500917796114496      4.5608029787787503      14.287419999999999
   208   1      36.565837099843591      8.6096887280204317      11.292730000000001
   209   1      16.914535000151968       11.04212713683075      14.287419999999999
   210   1        19.9542113364821      36.160675396801004      11.292730000000001
   211   1        19.9542113364821      36.160675396801004      7.1900700000000004
   212   1        19.9542113364821      36.160675396801004      3.0874199999999998
   213   1      24.207730967190976      7.8014670884970805      14.287419999999999
   214   1       20.56112841461373      9.4217950819715846      22.492730000000002
   215   1       20.56112841461373      9.4217950819715846      18.390070000000001
   216   1       20.56112841461373      9.4217950819715846      14.287419999999999
   217   1      38.186483912013948      4.9632334006371295      11.292730000000001
   218   1      38.186483912013948      4.9632334006371295      7.1900700000000004
   219   1      38.186483912013948      4.9632334006371295      3.0874199999999998
   220   1      27.854324381652734      6.1811350336379158      22.492730000000002
   221   1      27.854324381652734      6.1811350336379158      18.390070000000001
   222   1      27.854324381652734      6.1811350336379158      14.287419999999999
   223   1      24.207730967190976      7.8014670884970805      22.492730000000002
   224   1      24.207730967190976      7.8014670884970805      18.390070000000001
   225   1      21.574858148652456      32.514220069417703      3.0874199999999998
   226   1      13.267945647074869      12.662450053574428      22.492730000000002
   227   1      13.267945647074869      12.662450053574428      18.390070000000001
   228   1      13.267945647074869      12.662450053574428      14.287419999999999
   229   1      9.6213522326131091      14.282782108433594      22.492730000000002
   230   1      9.6213522326131091      14.282782108433594      18.390070000000001
   231   1      31.903435537743075      34.947963198050211      18.390070000000001
   232   1      31.903435537743075      34.947963198050211      14.287419999999999
   233   1       8.609683651289604      22.385177493352973      11.292730000000001
   234   1       8.609683651289604      22.385177493352973      7.1900700000000004
   235   1       8.609683651289604      22.385177493352973      3.0874199999999998
   236   1      39.196631504782076      31.707303149716545      22.492730000000002
   237   1      39.196631504782076      31.707303149716545      18.390070000000001
   238   1      39.196631504782076      31.707303149716545      14.287419999999999
   239   1      16.914535000151968       11.04212713683075      22.492730000000002
   240   1      16.914535000151968       11.04212713683075      18.390070000000001
   241   1      6.9890368391192466      26.031632820736277      11.292730000000001
   242   1      6.9890368391192466      26.031632820736277      7.1900700000000004
   243   1      6.9890368391192466      26.031632820736277      3.0874199999999998
   244   1      5.3683900269488909      29.678088148119578      11.292730000000001
   245   1      5.3683900269488909      29.678088148119578      7.1900700000000004
   246   1      5.3683900269488909      29.678088148119578      3.0874199999999998
   247   1      19.343327300883288      36.162356810050461      22.492730000000002
   248   1      19.343327300883288      36.162356810050461      18.390070000000001
   249   1      19.343327300883288      36.162356810050461      14.287419999999999
   250   1      15.696724748306043      37.782684803524965      22.492730000000002
   251   1      15.696724748306043      37.782684803524965      18.390070000000001
   252   1      15.696724748306043      37.782684803524965      14.287419999999999
   253   1      23.195504960822813      28.867764742034399      7.1900700000000004
   254   1      23.195504960822813      28.867764742034399      3.0874199999999998
   255   1      21.574858148652456      32.514220069417703      11.292730000000001
   256   1      21.574858148652456      32.514220069417703      7.1900700000000004
   257   1      36.767839204050759      6.5870734764968333      18.390070000000001
   258   1      36.767839204050759      6.5870734764968333      14.287419999999999
   259   1      26.436798585163526      21.574854087267799      11.292730000000001
   260   1      26.436798585163526      21.574854087267799      7.1900700000000004
   261   1      26.436798585163526      21.574854087267799      3.0874199999999998
   262   1      2.3281562655741044      17.523442156767263      22.492730000000002
   263   1      2.3281562655741044      17.523442156767263      18.390070000000001
   264   1      2.3281562655741044      17.523442156767263      14.287419999999999
   265   1       24.81615177299317      25.221309414651103      11.292730000000001
   266   1       24.81615177299317      25.221309414651103      7.1900700000000004
   267   1       24.81615177299317      25.221309414651103      3.0874199999999998
   268   1      9.6213522326131091      14.282782108433594      14.287419999999999
   269   1      5.9747496800358633      15.903110101908096      22.492730000000002
   270   1      5.9747496800358633      15.903110101908096      18.390070000000001
   271   1      5.9747496800358633      15.903110101908096      14.287419999999999
   272   1      23.195504960822813      28.867764742034399      11.292730000000001
   273   1      33.121249850973662      8.2073963932405096      18.390070000000001
   274   1      33.121249850973662      8.2073963932405096      14.287419999999999
   275   1        29.4746564365119      9.8277284480996752      22.492730000000002
   276   1        29.4746564365119      9.8277284480996752      18.390070000000001
   277   1      22.989920715345054      34.542024755191306      22.492730000000002
   278   1      22.989920715345054      34.542024755191306      18.390070000000001
   279   1      22.989920715345054      34.542024755191306      14.287419999999999
   280   1      3.7477432147785339      33.324543475502878      11.292730000000001
   281   1      3.7477432147785339      33.324543475502878      7.1900700000000004
   282   1      3.7477432147785339      33.324543475502878      3.0874199999999998
   283   1      2.1270964026081765      36.970998802886186      11.292730000000001
   284   1      30.283116682384055      31.301364706857633      22.492730000000002
   285   1      30.283116682384055      31.301364706857633      18.390070000000001
   286   1      30.283116682384055      31.301364706857633      14.287419999999999
   287   1        29.4746564365119      9.8277284480996752      14.287419999999999
   288   1      36.767839204050759      6.5870734764968333      22.492730000000002
   289   1      22.181460469472892      13.068388496433343      22.492730000000002
   290   1      22.181460469472892      13.068388496433343      18.390070000000001
   291   1      22.181460469472892      13.068388496433343      14.287419999999999
   292   1      31.298734960289934      10.635497243233379      11.292730000000001
   293   1      31.298734960289934      10.635497243233379      7.1900700000000004
   294   1      31.298734960289934      10.635497243233379      3.0874199999999998
   295   1      25.828063022050141      11.448060502958841      22.492730000000002
   296   1      25.828063022050141      11.448060502958841      18.390070000000001
   297   1      25.828063022050141      11.448060502958841      14.287419999999999
   298   1      29.678092209504239      14.281943432501196      11.292730000000001
   299   1      29.678092209504239      14.281943432501196      7.1900700000000004
   300   1      29.678092209504239      14.281943432501196      3.0874199999999998
   301   1      28.057445397333883      17.928398759884498      11.292730000000001
   302   1      28.057445397333883      17.928398759884498      7.1900700000000004
   303   1      28.057445397333883      17.928398759884498      3.0874199999999998
   304   1      33.121249850973662      8.2073963932405096      22.492730000000002
   305   1      18.534867055011137      14.688720551292509      18.390070000000001
   306   1      18.534867055011137      14.688720551292509      14.287419999999999
   307   1      14.888273640549375      16.309052606151674      22.492730000000002
   308   1      14.888273640549375      16.309052606151674      18.390070000000001
   309   1      14.888273640549375      16.309052606151674      14.287419999999999
   310   1      32.919381772460291      6.9890419158500778      11.292730000000001
   311   1      32.919381772460291      6.9890419158500778      7.1900700000000004
   312   1      32.919381772460291      6.9890419158500778      3.0874199999999998
   313   1      26.636514129806812      32.921692700332137      22.492730000000002
   314   1      26.636514129806812      32.921692700332137      18.390070000000001
   315   1      26.636514129806812      32.921692700332137      14.287419999999999
   316   1      33.929710096845824      29.681032651998468      22.492730000000002
   317   1      33.929710096845824      29.681032651998468      18.390070000000001
   318   1      33.929710096845824      29.681032651998468      14.287419999999999
   319   1      2.1270964026081765      36.970998802886186      7.1900700000000004
   320   1      2.1270964026081765      36.970998802886186      3.0874199999999998
   321   1      34.540028584630647       3.342586588466776      7.1900700000000004
   322   1      34.540028584630647       3.342586588466776      3.0874199999999998
   323   1      11.241671087972131      17.929380599626178      22.492730000000002
   324   1      11.241671087972131      17.929380599626178      18.390070000000001
   325   1      37.576299449922921       28.06070973525479      22.492730000000002
   326   1      37.576299449922921       28.06070973525479      18.390070000000001
   327   1      37.576299449922921       28.06070973525479      14.287419999999999
   328   1      21.980015790310386      2.1271014793390064      11.292730000000001
   329   1      21.980015790310386      2.1271014793390064      7.1900700000000004
   330   1      21.980015790310386      2.1271014793390064      3.0874199999999998
   331   1      20.359368978140029      5.7735568067223078      11.292730000000001
   332   1      20.359368978140029      5.7735568067223078      7.1900700000000004
   333   1      10.429803340369782      35.756414305806892      22.492730000000002
   334   1      10.429803340369782      35.756414305806892      18.390070000000001
   335   1      11.241671087972131      17.929380599626178      14.287419999999999
   336   1      18.534867055011137      14.688720551292509      22.492730000000002
   337   1      10.429803340369782      35.756414305806892      14.287419999999999
   338   1      6.7832099259080216      37.376746360666054      22.492730000000002
   339   1      6.7832099259080216      37.376746360666054      18.390070000000001
   340   1      6.7832099259080216      37.376746360666054      14.287419999999999
   341   1       3.136616511446261      38.997078415525216      22.492730000000002
   342   1       3.136616511446261      38.997078415525216      18.390070000000001
   343   1       3.136616511446261      38.997078415525216      14.287419999999999
   344   1      20.359368978140029      5.7735568067223078      3.0874199999999998
   345   1      18.738726227354334      9.4200029959901244      11.292730000000001
   346   1      18.738726227354334      9.4200029959901244      7.1900700000000004
   347   1      18.738726227354334      9.4200029959901244      3.0874199999999998
   348   1      14.076405892947026      34.136086312332388      22.492730000000002
   349   1      7.5950817348950288      19.549703516369856      22.492730000000002
   350   1      7.5950817348950288      19.549703516369856      18.390070000000001
   351   1      7.5950817348950288      19.549703516369856      14.287419999999999
   352   1      34.540028584630647       3.342586588466776      11.292730000000001
   353   1      38.388171258909928      10.233666890958593      14.287419999999999
   354   1      34.741577844448159      11.853998945817755      22.492730000000002
   355   1      34.741577844448159      11.853998945817755      18.390070000000001
   356   1      34.741577844448159      11.853998945817755      14.287419999999999
   357   1      3.9484883204332668      21.170035571229025      22.492730000000002