(written by ASE)

2136 atoms
3 atom types

0.0      37.645161092926507  xlo xhi
0.0      37.645161092926507  ylo yhi
0.0                      50  zlo zhi

Masses

     1       137.3269999646734 # Ba
     2      15.998999995884349 # O
     3      47.866999987686484 # Ti

Atoms # atomic

     1   1      8.3538422323322443        11.1032032536157      7.1900700000000004
     2   1      8.3538422323322443        11.1032032536157      3.0874199999999998
     3   1      12.583631272762624      4.3355407889270943      11.292730000000001
     4   1      12.583631272762624      4.3355407889270943      7.1900700000000004
     5   1      12.583631272762624      4.3355407889270943      3.0874199999999998
     6   1      8.5653213493744325     0.52883506233093291      22.492730000000002
     7   1      8.5653213493744325     0.52883506233093291      18.390070000000001
     8   1      8.5653213493744325     0.52883506233093291      14.287419999999999
     9   1      35.424517531035782      28.022375315305414      11.292730000000001
    10   1      35.424517531035782      28.022375315305414      7.1900700000000004
    11   1      35.424517531035782      28.022375315305414      3.0874199999999998
    12   1      33.309620360825896      31.406210787641239      11.292730000000001
    13   1      33.309620360825896      31.406210787641239      7.1900700000000004
    14   1      33.309620360825896      31.406210787641239      3.0874199999999998
    15   1      36.904738850596118      15.756473107085302      22.492730000000002
    16   1      36.904738850596118      15.756473107085302      18.390070000000001
    17   1     0.74021241957664075      15.755977028077458      7.1900700000000004
    18   1      1.7975963448109054      4.7585403629287919      14.287419999999999
    19   1      25.695999028053336      36.058989862092396      7.1900700000000004
    20   1      25.695999028053336      36.058989862092396      3.0874199999999998
    21   1      37.539414701245676      24.638539842969593      11.292730000000001
    22   1      37.539414701245676      24.638539842969593      7.1900700000000004
    23   1      37.539414701245676      24.638539842969593      3.0874199999999998
    24   1      5.1814561970979689      2.6436919526213827      22.492730000000002
    25   1      5.1814561970979689      2.6436919526213827      18.390070000000001
    26   1      5.1814561970979689      2.6436919526213827      14.287419999999999
    27   1      36.693455833161721      33.521107957851129      11.292730000000001
    28   1      36.693455833161721      33.521107957851129      7.1900700000000004
    29   1      36.693455833161721      33.521107957851129      3.0874199999999998
    30   1      34.578558662951828      36.904943430186954      11.292730000000001
    31   1      34.578558662951828      36.904943430186954      7.1900700000000004
    32   1      8.3538422323322443        11.1032032536157      11.292730000000001
    33   1      10.680178239664881      3.9127002146073968      14.287419999999999
    34   1      32.040690538683002      25.907483445084925      11.292730000000001
    35   1      32.040690538683002      25.907483445084925      7.1900700000000004
    36   1      32.040690538683002      25.907483445084925      3.0874199999999998
    37   1      29.925793368473112       29.29131891742075      11.292730000000001
    38   1      29.925793368473112       29.29131891742075      7.1900700000000004
    39   1     0.74021241957664075      15.755977028077458      3.0874199999999998
    40   1      4.1240478919124639      17.870874198287346      11.292730000000001
    41   1      4.1240478919124639      17.870874198287346      7.1900700000000004
    42   1      4.1240478919124639      17.870874198287346      3.0874199999999998
    43   1      2.0091507217025755      21.254709670623168      11.292730000000001
    44   1      4.9700067599964202      8.9883060834058099      3.0874199999999998
    45   1      2.8551095897865304      12.372141555741635      11.292730000000001
    46   1      2.8551095897865304      12.372141555741635      7.1900700000000004
    47   1      14.064038091951945      1.7978518042999869      22.492730000000002
    48   1      14.064038091951945      1.7978518042999869      18.390070000000001
    49   1      34.155587708892895      22.523647972749103      11.292730000000001
    50   1      34.155587708892895      22.523647972749103      7.1900700000000004
    51   1      34.155587708892895      22.523647972749103      3.0874199999999998
    52   1      7.2963130873884179      6.0275571048978458      22.492730000000002
    53   1      7.2963130873884179      6.0275571048978458      18.390070000000001
    54   1      7.2963130873884179      6.0275571048978458      14.287419999999999
    55   1      2.8551095897865304      12.372141555741635      3.0874199999999998
    56   1      7.0849039302063099      5.6044706110699876      11.292730000000001
    57   1      7.0849039302063099      5.6044706110699876      7.1900700000000004
    58   1      7.0849039302063099      5.6044706110699876      3.0874199999999998
    59   1      4.9700067599964202      8.9883060834058099      11.292730000000001
    60   1      4.9700067599964202      8.9883060834058099      7.1900700000000004
    61   1      2.0091507217025755      21.254709670623168      7.1900700000000004
    62   1      2.0091507217025755      21.254709670623168      3.0874199999999998
    63   1      10.680178239664881      3.9127002146073968      22.492730000000002
    64   1      10.680178239664881      3.9127002146073968      18.390070000000001
    65   1      36.270479579113385      19.139820980396319      7.1900700000000004
    66   1      36.270479579113385      19.139820980396319      3.0874199999999998
    67   1      3.9124532351013546      8.1424055152052546      22.492730000000002
    68   1      3.9124532351013546      8.1424055152052546      18.390070000000001
    69   1      3.9124532351013546      8.1424055152052546      14.287419999999999
    70   1      9.1997958004268003      2.2206436187172045      11.292730000000001
    71   1      9.1997958004268003      2.2206436187172045      7.1900700000000004
    72   1      9.1997958004268003      2.2206436187172045      3.0874199999999998
    73   1      18.082363915308335      3.0666024868011603      11.292730000000001
    74   1      18.082363915308335      3.0666024868011603      7.1900700000000004
    75   1      18.082363915308335      3.0666024868011603      3.0874199999999998
    76   1      3.7010684578704867      3.4895734408600974      11.292730000000001
    77   1      3.7010684578704867      3.4895734408600974      7.1900700000000004
    78   1     0.52858808282489111      10.257262405495704      22.492730000000002
    79   1     0.52858808282489111      10.257262405495704      18.390070000000001
    80   1     0.52858808282489111      10.257262405495704      14.287419999999999
    81   1      19.562754834529457       3.066868546269041      14.287419999999999
    82   1      3.7010684578704867      3.4895734408600974      3.0874199999999998
    83   1      1.5861712876605971      6.8734089131959202      11.292730000000001
    84   1      1.5861712876605971      6.8734089131959202      7.1900700000000004
    85   1      1.5861712876605971      6.8734089131959202      3.0874199999999998
    86   1      15.967466745098445      6.4504379591369831      11.292730000000001
    87   1      15.967466745098445      6.4504379591369831      7.1900700000000004
    88   1      15.967466745098445      6.4504379591369831      3.0874199999999998
    89   1      5.8159603280909762     0.10574644850731413      11.292730000000001
    90   1      5.8159603280909762     0.10574644850731413      7.1900700000000004
    91   1      5.8159603280909762     0.10574644850731413      3.0874199999999998
    92   1      22.946619986805921     0.95201165597859083      22.492730000000002
    93   1      22.946619986805921     0.95201165597859083      18.390070000000001
    94   1      22.946619986805921     0.95201165597859083      14.287419999999999
    95   1      20.197266385507621      37.327928164218328      3.0874199999999998
    96   1      36.270479579113385      19.139820980396319      11.292730000000001
    97   1      24.427060725927401      30.560257219546685      11.292730000000001
    98   1      16.178886502259353      5.1817116565870505      22.492730000000002
    99   1      16.178886502259353      5.1817116565870505      18.390070000000001
   100   1      16.178886502259353      5.1817116565870505      14.287419999999999
   101   1      12.795026649972291      7.2965600668944601      22.492730000000002
   102   1      12.795026649972291      7.2965600668944601      18.390070000000001
   103   1      12.795026649972291      7.2965600668944601      14.287419999999999
   104   1      24.427060725927401      30.560257219546685      7.1900700000000004
   105   1      24.427060725927401      30.560257219546685      3.0874199999999998
   106   1      22.312163555717515      33.944092691882503      11.292730000000001
   107   1      22.312163555717515      33.944092691882503      7.1900700000000004
   108   1      22.312163555717515      33.944092691882503      3.0874199999999998
   109   1      20.197266385507621      37.327928164218328      11.292730000000001
   110   1      20.197266385507621      37.327928164218328      7.1900700000000004
   111   1      19.562754834529457       3.066868546269041      22.492730000000002
   112   1      19.562754834529457       3.066868546269041      18.390070000000001
   113   1       28.65685506634718      23.792586274875035      11.292730000000001
   114   1       28.65685506634718      23.792586274875035      7.1900700000000004
   115   1       28.65685506634718      23.792586274875035      3.0874199999999998
   116   1      9.4111614976958275        9.41141695718491      22.492730000000002
   117   1      9.4111614976958275        9.41141695718491      18.390070000000001
   118   1      13.852574874877954      9.8342649514897662      11.292730000000001
   119   1      13.852574874877954      9.8342649514897662      7.1900700000000004
   120   1      13.852574874877954      9.8342649514897662      3.0874199999999998
   121   1      11.737677704668066      13.218100423825589      11.292730000000001
   122   1     0.31723298553466334       1.374676270650208      11.292730000000001
   123   1     0.31723298553466334       1.374676270650208      7.1900700000000004
   124   1     0.31723298553466334       1.374676270650208      3.0874199999999998
   125   1      9.4111614976958275        9.41141695718491      14.287419999999999
   126   1      26.541957896137291       27.17642174721086      11.292730000000001
   127   1      26.541957896137291       27.17642174721086      7.1900700000000004
   128   1      26.541957896137291       27.17642174721086      3.0874199999999998
   129   1       26.32997740009786      36.482325455422057      22.492730000000002
   130   1       26.32997740009786      36.482325455422057      18.390070000000001
   131   1       26.32997740009786      36.482325455422057      14.287419999999999
   132   1      35.212550814968793      35.636480007111267      22.492730000000002
   133   1      35.212550814968793      35.636480007111267      18.390070000000001
   134   1      35.212550814968793      35.636480007111267      14.287419999999999
   135   1      11.737677704668066      13.218100423825589      7.1900700000000004
   136   1      11.737677704668066      13.218100423825589      3.0874199999999998
   137   1      9.6227805344581743      16.601935896161415      11.292730000000001
   138   1      9.6227805344581743      16.601935896161415      7.1900700000000004
   139   1      9.6227805344581743      16.601935896161415      3.0874199999999998
   140   1      33.097702404661383        32.2526201548242      18.390070000000001
   141   1      33.097702404661383        32.2526201548242      14.287419999999999
   142   1      6.0273016454087633      11.526265367492318      22.492730000000002
   143   1      6.0273016454087633      11.526265367492318      18.390070000000001
   144   1      6.0273016454087633      11.526265367492318      14.287419999999999
   145   1       25.06146839711333      4.3358715082656563      14.287419999999999
   146   1      35.001541276987453      13.641088337850608      11.292730000000001
   147   1      35.001541276987453      13.641088337850608      7.1900700000000004
   148   1      35.001541276987453      13.641088337850608      3.0874199999999998
   149   1       32.88664410677756      17.024923810186429      11.292730000000001
   150   1      31.829193401676854     0.10616620766780024      22.492730000000002
   151   1      31.829193401676854     0.10616620766780024      18.390070000000001
   152   1      31.829193401676854     0.10616620766780024      14.287419999999999
   153   1       32.88664410677756      17.024923810186429      7.1900700000000004
   154   1       32.88664410677756      17.024923810186429      3.0874199999999998
   155   1       30.77175223655707      20.408750802539213      11.292730000000001
   156   1       30.77175223655707      20.408750802539213      7.1900700000000004
   157   1       30.77175223655707      20.408750802539213      3.0874199999999998
   158   1      2.6434364931323002      13.641122257782769      22.492730000000002
   159   1      2.6434364931323002      13.641122257782769      18.390070000000001
   160   1      2.6434364931323002      13.641122257782769      14.287419999999999
   161   1      37.116438447197339      10.257252865514785      7.1900700000000004
   162   1      37.116438447197339      10.257252865514785      3.0874199999999998
   163   1      28.445328249400394       2.221023097958247      22.492730000000002
   164   1      28.445328249400394       2.221023097958247      18.390070000000001
   165   1      28.445328249400394       2.221023097958247      14.287419999999999
   166   1      29.713842552374327       34.36746856513161      22.492730000000002
   167   1      29.713842552374327       34.36746856513161      18.390070000000001
   168   1      29.713842552374327       34.36746856513161      14.287419999999999
   169   1      7.5078833642482854      19.985771368497236      11.292730000000001
   170   1      7.5078833642482854      19.985771368497236      7.1900700000000004
   171   1      7.5078833642482854      19.985771368497236      3.0874199999999998
   172   1      36.481567556937847      30.137763264533749      22.492730000000002
   173   1      36.481567556937847      30.137763264533749      18.390070000000001
   174   1      36.481567556937847      30.137763264533749      14.287419999999999
   175   1       25.06146839711333      4.3358715082656563      22.492730000000002
   176   1       25.06146839711333      4.3358715082656563      18.390070000000001
   177   1      11.526018387986277      12.795282109461374      14.287419999999999
   178   1      21.043225253591579      28.445360049336799      7.1900700000000004
   179   1      21.043225253591579      28.445360049336799      3.0874199999999998
   180   1      18.928328083381693       31.82919552167262      11.292730000000001
   181   1      18.928328083381693       31.82919552167262      7.1900700000000004
   182   1      18.928328083381693       31.82919552167262      3.0874199999999998
   183   1      18.293743392549803      8.5655768088635149      22.492730000000002
   184   1      18.293743392549803      8.5655768088635149      18.390070000000001
   185   1      18.293743392549803      8.5655768088635149      14.287419999999999
   186   1      21.677603244836867      6.4507283985561044      22.492730000000002
   187   1      21.677603244836867      6.4507283985561044      18.390070000000001
   188   1      21.677603244836867      6.4507283985561044      14.287419999999999
   189   1        16.8134309131718      35.213030994008442      11.292730000000001
   190   1        16.8134309131718      35.213030994008442      7.1900700000000004
   191   1        16.8134309131718      35.213030994008442      3.0874199999999998
   192   1      37.116438447197339      10.257252865514785      11.292730000000001
   193   1      14.909883540262738      10.680425219170923      22.492730000000002
   194   1      14.909883540262738      10.680425219170923      18.390070000000001
   195   1      14.909883540262738      10.680425219170923      14.287419999999999
   196   1      33.097702404661383        32.2526201548242      22.492730000000002
   197   1      5.3929861940383965      23.369606840833058      11.292730000000001
   198   1      5.3929861940383965      23.369606840833058      7.1900700000000004
   199   1      5.3929861940383965      23.369606840833058      3.0874199999999998
   200   1      3.2780890238285063      26.753442313168883      11.292730000000001
   201   1      20.831260657520346      35.213308713453003      22.492730000000002
   202   1      20.831260657520346      35.213308713453003      18.390070000000001
   203   1      20.831260657520346      35.213308713453003      14.287419999999999
   204   1      17.447400805233286      37.328157123760413      22.492730000000002
   205   1      17.447400805233286      37.328157123760413      18.390070000000001
   206   1      17.447400805233286      37.328157123760413      14.287419999999999
   207   1      11.526018387986277      12.795282109461374      22.492730000000002
   208   1      11.526018387986277      12.795282109461374      18.390070000000001
   209   1      37.327910144254368      1.3751829496368499      14.287419999999999
   210   1      25.273019594011359      21.677689104665149      11.292730000000001
   211   1      25.273019594011359      21.677689104665149      7.1900700000000004
   212   1      25.273019594011359      21.677689104665149      3.0874199999999998
   213   1      4.7582849034397094      17.024982110069832      22.492730000000002
   214   1      4.7582849034397094      17.024982110069832      18.390070000000001
   215   1      4.7582849034397094      17.024982110069832      14.287419999999999
   216   1      1.3744250511526457      19.139830520377242      22.492730000000002
   217   1      1.3744250511526457      19.139830520377242      18.390070000000001
   218   1      8.1421585356992114      14.910130519768781      22.492730000000002
   219   1      8.1421585356992114      14.910130519768781      18.390070000000001
   220   1      8.1421585356992114      14.910130519768781      14.287419999999999
   221   1      23.158122423801469      25.061524577000974      11.292730000000001
   222   1      23.158122423801469      25.061524577000974      7.1900700000000004
   223   1      23.158122423801469      25.061524577000974      3.0874199999999998
   224   1      21.043225253591579      28.445360049336799      11.292730000000001
   225   1      27.387916764221249      18.293853632329327      7.1900700000000004
   226   1      27.387916764221249      18.293853632329327      3.0874199999999998
   227   1      1.3744250511526457      19.139830520377242      14.287419999999999
   228   1      37.327910144254368      1.3751829496368499      22.492730000000002
   229   1      37.327910144254368      1.3751829496368499      18.390070000000001
   230   1      3.2780890238285063      26.753442313168883      7.1900700000000004
   231   1      3.2780890238285063      26.753442313168883      3.0874199999999998
   232   1      1.1631918536186177      30.137277785504704      11.292730000000001
   233   1      1.1631918536186177      30.137277785504704      7.1900700000000004
   234   1      1.1631918536186177      30.137277785504704      3.0874199999999998
   235   1      27.598985662083873      30.983603412855146      22.492730000000002
   236   1      27.598985662083873      30.983603412855146      18.390070000000001
   237   1      27.598985662083873      30.983603412855146      14.287419999999999
   238   1      24.215120509807413      33.098460303145593      22.492730000000002
   239   1      24.215120509807413      33.098460303145593      18.390070000000001
   240   1      24.215120509807413      33.098460303145593      14.287419999999999
   241   1      31.617705804651628      11.526191167640722      7.1900700000000004
   242   1      31.617705804651628      11.526191167640722      3.0874199999999998
   243   1      29.502808634441738      14.910026639976543      11.292730000000001
   244   1      33.944050291967308      3.4900313599442621      22.492730000000002
   245   1       30.98284551437094      28.868755002547733      22.492730000000002
   246   1       30.98284551437094      28.868755002547733      18.390070000000001
   247   1       30.98284551437094      28.868755002547733      14.287419999999999
   248   1      34.366710666647407      26.753898112257289      22.492730000000002
   249   1      34.366710666647407      26.753898112257289      18.390070000000001
   250   1      34.366710666647407      26.753898112257289      14.287419999999999
   251   1       23.58109655785405      1.7976641846752268      11.292730000000001
   252   1      33.944050291967308      3.4900313599442621      18.390070000000001
   253   1      33.944050291967308      3.4900313599442621      14.287419999999999
   254   1      29.502808634441738      14.910026639976543      7.1900700000000004
   255   1      29.502808634441738      14.910026639976543      3.0874199999999998
   256   1      27.387916764221249      18.293853632329327      11.292730000000001
   257   1      30.560185139690844      5.6048882502347102      14.287419999999999
   258   1       23.58109655785405      1.7976641846752268      7.1900700000000004
   259   1       23.58109655785405      1.7976641846752268      3.0874199999999998
   260   1       21.46619938764416      5.1814996570110496      11.292730000000001
   261   1       21.46619938764416      5.1814996570110496      7.1900700000000004
   262   1       21.46619938764416      5.1814996570110496      3.0874199999999998
   263   1      15.332552394925873      33.944297271473346      22.492730000000002
   264   1      15.332552394925873      33.944297271473346      18.390070000000001
   265   1      15.332552394925873      33.944297271473346      14.287419999999999
   266   1      11.948678762666372      36.059148861774396      22.492730000000002
   267   1      11.948678762666372      36.059148861774396      18.390070000000001
   268   1      11.948678762666372      36.059148861774396      14.287419999999999
   269   1       27.17631680742074      7.7197313605527196      22.492730000000002
   270   1       27.17631680742074      7.7197313605527196      18.390070000000001
   271   1       27.17631680742074      7.7197313605527196      14.287419999999999
   272   1      31.617705804651628      11.526191167640722      11.292730000000001
   273   1      13.640866798293684      16.179141961748435      18.390070000000001
   274   1      13.640866798293684      16.179141961748435      14.287419999999999
   275   1      35.847500145071407      4.7585202229690751      11.292730000000001
   276   1      35.847500145071407      4.7585202229690751      7.1900700000000004
   277   1      35.847500145071407      4.7585202229690751      3.0874199999999998
   278   1      20.408591802857213      11.949436661150578      22.492730000000002
   279   1      20.408591802857213      11.949436661150578      18.390070000000001
   280   1      20.408591802857213      11.949436661150578      14.287419999999999
   281   1       23.79245165514428      9.8345882508431686      22.492730000000002
   282   1       23.79245165514428      9.8345882508431686      18.390070000000001
   283   1       23.79245165514428      9.8345882508431686      14.287419999999999
   284   1      33.732602974861521      8.1423556953048983      11.292730000000001
   285   1      33.732602974861521      8.1423556953048983      7.1900700000000004
   286   1      33.732602974861521      8.1423556953048983      3.0874199999999998
   287   1      30.560185139690844      5.6048882502347102      22.492730000000002
   288   1      30.560185139690844      5.6048882502347102      18.390070000000001
   289   1      10.257006946006621      18.293990372055845      22.492730000000002
   290   1      10.257006946006621      18.293990372055845      18.390070000000001
   291   1      10.257006946006621      18.293990372055845      14.287419999999999
   292   1       17.02472665058075      14.064293551441025      22.492730000000002
   293   1      18.716412247212936      31.829448861165936      22.492730000000002
   294   1      18.716412247212936      31.829448861165936      18.390070000000001
   295   1      18.716412247212936      31.829448861165936      14.287419999999999
   296   1       19.35130221743427       8.565335129346872      11.292730000000001
   297   1       19.35130221743427       8.565335129346872      7.1900700000000004
   298   1       19.35130221743427       8.565335129346872      3.0874199999999998
   299   1        22.1002773994894      29.714591970875489      22.492730000000002
   300   1        22.1002773994894      29.714591970875489      18.390070000000001
   301   1        22.1002773994894      29.714591970875489      14.287419999999999
   302   1       17.02472665058075      14.064293551441025      18.390070000000001
   303   1       17.02472665058075      14.064293551441025      14.287419999999999
   304   1      13.640866798293684      16.179141961748435      22.492730000000002
   305   1     0.10541678916663325      24.638552562944152      14.287419999999999
   306   1      17.659389781255754      26.330462879126905      11.292730000000001
   307   1      17.659389781255754      26.330462879126905      7.1900700000000004
   308   1      17.659389781255754      26.330462879126905      3.0874199999999998
   309   1      15.544492611045866      29.714298351462727      11.292730000000001
   310   1      15.544492611045866      29.714298351462727      7.1900700000000004
   311   1      15.544492611045866      29.714298351462727      3.0874199999999998
   312   1      6.8731417937301602      20.408847262346296      22.492730000000002
   313   1      6.8731417937301602      20.408847262346296      18.390070000000001
   314   1      6.8731417937301602      20.408847262346296      14.287419999999999
   315   1      13.429595440835977      33.098133823798555      11.292730000000001
   316   1      13.429595440835977      33.098133823798555      7.1900700000000004
   317   1      13.429595440835977      33.098133823798555      3.0874199999999998
   318   1      11.314698270626087      36.481969296134373      11.292730000000001
   319   1      11.314698270626087      36.481969296134373      7.1900700000000004
   320   1      11.314698270626087      36.481969296134373      3.0874199999999998
   321   1      19.774286951465644      22.946627406791084      7.1900700000000004
   322   1      19.774286951465644      22.946627406791084      3.0874199999999998
   323   1       3.489281941443096      22.523695672653705      22.492730000000002
   324   1       3.489281941443096      22.523695672653705      18.390070000000001
   325   1       3.489281941443096      22.523695672653705      14.287419999999999
   326   1     0.10541678916663325      24.638552562944152      22.492730000000002
   327   1      17.236410347213781      11.949162121699656      11.292730000000001
   328   1      17.236410347213781      11.949162121699656      7.1900700000000004
   329   1      17.236410347213781      11.949162121699656      3.0874199999999998
   330   1       28.86799710406353       25.48489515026067      22.492730000000002
   331   1       28.86799710406353       25.48489515026067      18.390070000000001
   332   1       28.86799710406353       25.48489515026067      14.287419999999999
   333   1      25.484137251776467      27.599743560568083      22.492730000000002
   334   1      25.484137251776467      27.599743560568083      18.390070000000001
   335   1      25.484137251776467      27.599743560568083      14.287419999999999
   336   1     0.10541678916663325      24.638552562944152      18.390070000000001
   337   1      36.058893402285314      6.8738996922143656      22.492730000000002
   338   1      36.058893402285314      6.8738996922143656      18.390070000000001
   339   1      36.058893402285314      6.8738996922143656      14.287419999999999
   340   1       32.25186225633999      23.370038259970222      22.492730000000002
   341   1       32.25186225633999      23.370038259970222      18.390070000000001
   342   1       32.25186225633999      23.370038259970222      14.287419999999999
   343   1      15.121513177003893      15.332997594035479      11.292730000000001
   344   1      15.121513177003893      15.332997594035479      7.1900700000000004
   345   1      15.121513177003893      15.332997594035479      3.0874199999999998
   346   1      13.006616006794001      18.716833066371304      11.292730000000001
   347   1      13.006616006794001      18.716833066371304      7.1900700000000004
   348   1      13.006616006794001      18.716833066371304      3.0874199999999998
   349   1      32.675033549998254      8.9887481025217753      22.492730000000002
   350   1      32.675033549998254      8.9887481025217753      18.390070000000001
   351   1      32.675033549998254      8.9887481025217753      14.287419999999999
   352   1      19.774286951465644      22.946627406791084      11.292730000000001
   353   1      19.139583540871197      17.448158703717489      14.287419999999999
   354   1      26.118973162105913      12.795129469766652      11.292730000000001
   355   1      26.118973162105913      12.795129469766652      7.1900700000000004
   356   1      26.118973162105913      12.795129469766652      3.0874199999999998
   357   1      24.004081291885424      16.178956462119437      11.292730000000001