(written by ASE)

7032 atoms
3 atom types

0.0      68.304287709667619  xlo xhi
0.0      68.304287709667619  ylo yhi
0.0                      50  zlo zhi

Masses

     1       137.3269999646734 # Ba
     2      15.998999995884349 # O
     3      47.866999987686484 # Ti

Atoms # atomic

     1   1      31.646101964093067      46.915492807757282      3.0874199999999998
     2   1       32.11234294156106      42.952444499279359      11.292730000000001
     3   1       32.11234294156106      42.952444499279359      7.1900700000000004
     4   1       32.11234294156106      42.952444499279359      3.0874199999999998
     5   1      31.179862155037551      50.878531184729155      11.292730000000001
     6   1      31.179862155037551      50.878531184729155      7.1900700000000004
     7   1      31.179862155037551      50.878531184729155      3.0874199999999998
     8   1       32.57858391902905      38.989396190801443      11.292730000000001
     9   1       32.57858391902905      38.989396190801443      7.1900700000000004
    10   1       32.57858391902905      38.989396190801443      3.0874199999999998
    11   1      30.713621177569561      54.841579493207078      11.292730000000001
    12   1      30.713621177569561      54.841579493207078      7.1900700000000004
    13   1      30.713621177569561      54.841579493207078      3.0874199999999998
    14   1       29.78113922263358       62.76767611016291      11.292730000000001
    15   1       29.78113922263358       62.76767611016291      7.1900700000000004
    16   1       29.78113922263358       62.76767611016291      3.0874199999999998
    17   1      4.8376266621506883      66.730699297772603      14.287419999999999
    18   1     0.40831751319269077      63.233912413981002      22.492730000000002
    19   1     0.40831751319269077      63.233912413981002      18.390070000000001
    20   1     0.40831751319269077      63.233912413981002      14.287419999999999
    21   1      65.448564067428819      66.963843738962353      11.292730000000001
    22   1      65.448564067428819      66.963843738962353      7.1900700000000004
    23   1      65.448564067428819      66.963843738962353      3.0874199999999998
    24   1      65.914805044896809      63.000795430484438      11.292730000000001
    25   1      65.914805044896809      63.000795430484438      7.1900700000000004
    26   1      65.914805044896809      63.000795430484438      3.0874199999999998
    27   1      67.779767786356288      47.148612128078803      11.292730000000001
    28   1      67.779767786356288      47.148612128078803      7.1900700000000004
    29   1      67.779767786356288      47.148612128078803      3.0874199999999998
    30   1      68.246008763824278       43.18556381960088      11.292730000000001
    31   1      68.246008763824278       43.18556381960088      7.1900700000000004
    32   1      31.646101964093067      46.915492807757282      7.1900700000000004
    33   1      66.147924365218316      26.867129608221216      11.292730000000001
    34   1      66.147924365218316      26.867129608221216      7.1900700000000004
    35   1      66.147924365218316      26.867129608221216      3.0874199999999998
    36   1      66.614165342686306      22.904081299743297      11.292730000000001
    37   1      66.614165342686306      22.904081299743297      7.1900700000000004
    38   1      66.614165342686306      22.904081299743297      3.0874199999999998
    39   1      67.080406320154296      18.941032991265377      11.292730000000001
    40   1      67.080406320154296      18.941032991265377      7.1900700000000004
    41   1      67.080406320154296      18.941032991265377      3.0874199999999998
    42   1        67.5466472976223       14.97798468278746      11.292730000000001
    43   1       2.506314280862973      46.915473528951438      22.492730000000002
    44   1       2.506314280862973      46.915473528951438      18.390070000000001
    45   1       2.506314280862973      46.915473528951438      14.287419999999999
    46   1      3.4388377144418403      54.841559630194986      22.492730000000002
    47   1      3.4388377144418403      54.841559630194986      18.390070000000001
    48   1      3.4388377144418403      54.841559630194986      14.287419999999999
    49   1      0.1749919680692151      27.100246591717784      14.287419999999999
    50   1     0.64125865061167031      31.063290226545803      22.492730000000002
    51   1     0.64125865061167031      31.063290226545803      18.390070000000001
    52   1     0.64125865061167031      31.063290226545803      14.287419999999999
    53   1      65.681683387750326      30.830177916699139      11.292730000000001
    54   1      65.681683387750326      30.830177916699139      7.1900700000000004
    55   1      65.681683387750326      30.830177916699139      3.0874199999999998
    56   1      1.5737809157780627      38.989386259295401      22.492730000000002
    57   1      1.5737809157780627      38.989386259295401      18.390070000000001
    58   1      1.5737809157780627      38.989386259295401      14.287419999999999
    59   1      1.1075241647416494      35.026343792879857      22.492730000000002
    60   1      1.1075241647416494      35.026343792879857      18.390070000000001
    61   1      1.1075241647416494      35.026343792879857      14.287419999999999
    62   1      2.0400475983205175      42.952429894123419      22.492730000000002
    63   1      2.0400475983205175      42.952429894123419      18.390070000000001
    64   1      2.0400475983205175      42.952429894123419      14.287419999999999
    65   1      7.8681468633998355        58.3383465139866      22.492730000000002
    66   1      7.8681468633998355        58.3383465139866      18.390070000000001
    67   1      7.8681468633998355        58.3383465139866      14.287419999999999
    68   1      64.749201432814345      38.756274533654974      11.292730000000001
    69   1      64.749201432814345      38.756274533654974      7.1900700000000004
    70   1      64.749201432814345      38.756274533654974      3.0874199999999998
    71   1      65.215442410282336      34.793226225177058      11.292730000000001
    72   1      65.215442410282336      34.793226225177058      7.1900700000000004
    73   1      65.215442410282336      34.793226225177058      3.0874199999999998
    74   1      8.8006702969787032      66.264432615230149      22.492730000000002
    75   1      8.8006702969787032      66.264432615230149      18.390070000000001
    76   1      8.8006702969787032      66.264432615230149      14.287419999999999
    77   1      8.3344135459422901      62.301390148814612      22.492730000000002
    78   1      8.3344135459422901      62.301390148814612      18.390070000000001
    79   1      0.1749919680692151      27.100246591717784      22.492730000000002
    80   1      0.1749919680692151      27.100246591717784      18.390070000000001
    81   1      6.4693579156909893      46.449206846408977      14.287419999999999
    82   1      6.0030912331485338      42.486163211580958      22.492730000000002
    83   1      6.0030912331485338      42.486163211580958      18.390070000000001
    84   1      6.0030912331485338      42.486163211580958      14.287419999999999
    85   1      64.282960455346355       42.71932284213289      11.292730000000001
    86   1      64.282960455346355       42.71932284213289      7.1900700000000004
    87   1      64.282960455346355       42.71932284213289      3.0874199999999998
    88   1      6.9356245982334439      50.412250481236995      22.492730000000002
    89   1      6.9356245982334439      50.412250481236995      18.390070000000001
    90   1      6.9356245982334439      50.412250481236995      14.287419999999999
    91   1      6.4693579156909893      46.449206846408977      22.492730000000002
    92   1      6.4693579156909893      46.449206846408977      18.390070000000001
    93   1        7.40188018085738      54.375302879158575      22.492730000000002
    94   1        7.40188018085738      54.375302879158575      18.390070000000001
    95   1        7.40188018085738      54.375302879158575      14.287419999999999
    96   1      8.3344135459422901      62.301390148814612      14.287419999999999
    97   1      3.6717788518608199      22.670937442759787      14.287419999999999
    98   1      4.6043011170272115      30.597033475509388      14.287419999999999
    99   1      4.1380344344847559      26.633989840681373      22.492730000000002
   100   1      4.1380344344847559      26.633989840681373      18.390070000000001
   101   1      4.1380344344847559      26.633989840681373      14.287419999999999
   102   1      63.816719477878372      46.682371150610813      11.292730000000001
   103   1      63.816719477878372      46.682371150610813      7.1900700000000004
   104   1      63.816719477878372      46.682371150610813      3.0874199999999998
   105   1       5.070567799569667      34.560077110337403      22.492730000000002
   106   1       5.070567799569667      34.560077110337403      18.390070000000001
   107   1       5.070567799569667      34.560077110337403      14.287419999999999
   108   1      4.6043011170272115      30.597033475509388      22.492730000000002
   109   1      4.6043011170272115      30.597033475509388      18.390070000000001
   110   1      5.5368344821121225      38.523120745165421      22.492730000000002
   111   1      5.5368344821121225      38.523120745165421      18.390070000000001
   112   1      5.5368344821121225      38.523120745165421      14.287419999999999
   113   1      2.2729887357394971      10.781807706688214      22.492730000000002
   114   1      2.2729887357394971      10.781807706688214      18.390070000000001
   115   1      2.2729887357394971      10.781807706688214      14.287419999999999
   116   1      62.884238691354867      54.608457836060609      11.292730000000001
   117   1      62.884238691354867      54.608457836060609      7.1900700000000004
   118   1      62.884238691354867      54.608457836060609      3.0874199999999998
   119   1      63.350478500410382      50.645419459088728      11.292730000000001
   120   1      63.350478500410382      50.645419459088728      7.1900700000000004
   121   1      63.350478500410382      50.645419459088728      3.0874199999999998
   122   1      3.2055121693183639      18.707893807931772      22.492730000000002
   123   1      3.2055121693183639      18.707893807931772      18.390070000000001
   124   1      3.2055121693183639      18.707893807931772      14.287419999999999
   125   1      2.7392454867759084      14.744850173103757      22.492730000000002
   126   1      2.7392454867759084      14.744850173103757      18.390070000000001
   127   1      3.6717788518608199      22.670937442759787      22.492730000000002
   128   1      3.6717788518608199      22.670937442759787      18.390070000000001
   129   1      11.831190498227853       57.87207983144414      22.492730000000002
   130   1      11.831190498227853       57.87207983144414      18.390070000000001
   131   1      11.831190498227853       57.87207983144414      14.287419999999999
   132   1      12.763723863312761      65.798167101100177      22.492730000000002
   133   1      12.763723863312761      65.798167101100177      18.390070000000001
   134   1      12.763723863312761      65.798167101100177      14.287419999999999
   135   1      62.417997713886876      58.571506144538525      11.292730000000001
   136   1      62.417997713886876      58.571506144538525      7.1900700000000004
   137   1      62.417997713886876      58.571506144538525      3.0874199999999998
   138   1      1.3404553706545863      2.8557204370321818      22.492730000000002
   139   1      1.3404553706545863      2.8557204370321818      18.390070000000001
   140   1      1.3404553706545863      2.8557204370321818      14.287419999999999
   141   1      1.8067220531970416      6.8187640718601985      22.492730000000002
   142   1      1.8067220531970416      6.8187640718601985      18.390070000000001
   143   1      1.8067220531970416      6.8187640718601985      14.287419999999999
   144   1      2.7392454867759084      14.744850173103757      14.287419999999999
   145   1      10.432400382106531      45.982950095372566      14.287419999999999
   146   1      9.9661348679765496      42.019896529038505      22.492730000000002
   147   1      9.9661348679765496      42.019896529038505      18.390070000000001
   148   1      9.9661348679765496      42.019896529038505      14.287419999999999
   149   1      10.898667064648988      49.945993730200584      22.492730000000002
   150   1      10.898667064648988      49.945993730200584      18.390070000000001
   151   1      10.898667064648988      49.945993730200584      14.287419999999999
   152   1      61.951756736418886      62.534554453016447      11.292730000000001
   153   1      61.951756736418886      62.534554453016447      7.1900700000000004
   154   1      61.951756736418886      62.534554453016447      3.0874199999999998
   155   1      11.364923815685396      53.909036196616121      22.492730000000002
   156   1      11.364923815685396      53.909036196616121      18.390070000000001
   157   1      11.364923815685396      53.909036196616121      14.287419999999999
   158   1       12.29745718077031      61.835123466272151      22.492730000000002
   159   1       12.29745718077031      61.835123466272151      18.390070000000001
   160   1       12.29745718077031      61.835123466272151      14.287419999999999
   161   1       8.101088000818816      26.167724326551394      18.390070000000001
   162   1       8.101088000818816      26.167724326551394      14.287419999999999
   163   1      64.982320753135866      2.6226087113917549      11.292730000000001
   164   1      64.982320753135866      2.6226087113917549      7.1900700000000004
   165   1      64.982320753135866      2.6226087113917549      3.0874199999999998
   166   1      61.485515758950896      66.497602761494363      11.292730000000001
   167   1      61.485515758950896      66.497602761494363      7.1900700000000004
   168   1      61.485515758950896      66.497602761494363      3.0874199999999998
   169   1      9.0336114343976828      34.093810427794949      22.492730000000002
   170   1      9.0336114343976828      34.093810427794949      18.390070000000001
   171   1      9.0336114343976828      34.093810427794949      14.287419999999999
   172   1      9.4998781169401383      38.056854062622968      22.492730000000002
   173   1      9.4998781169401383      38.056854062622968      18.390070000000001
   174   1      9.4998781169401383      38.056854062622968      14.287419999999999
   175   1      10.432400382106531      45.982950095372566      22.492730000000002
   176   1      10.432400382106531      45.982950095372566      18.390070000000001
   177   1      6.2360323705675134      10.315541024145761      22.492730000000002
   178   1      6.2360323705675134      10.315541024145761      18.390070000000001
   179   1      6.2360323705675134      10.315541024145761      14.287419999999999
   180   1      7.1685546357339049       18.24163705689536      22.492730000000002
   181   1      7.1685546357339049       18.24163705689536      18.390070000000001
   182   1      7.1685546357339049       18.24163705689536      14.287419999999999
   183   1      64.516079775667876      6.5856570198696742      11.292730000000001
   184   1      64.516079775667876      6.5856570198696742      7.1900700000000004
   185   1      64.516079775667876      6.5856570198696742      3.0874199999999998
   186   1      7.6348213182763605      22.204680691723379      22.492730000000002
   187   1      7.6348213182763605      22.204680691723379      18.390070000000001
   188   1      7.6348213182763605      22.204680691723379      14.287419999999999
   189   1      8.5673447518552273      30.130766792966931      22.492730000000002
   190   1      8.5673447518552273      30.130766792966931      18.390070000000001
   191   1      8.5673447518552273      30.130766792966931      14.287419999999999
   192   1       8.101088000818816      26.167724326551394      22.492730000000002
   193   1      16.260499647185849      61.368866715235747      14.287419999999999
   194   1      16.726766329728306      65.331910350063765      22.492730000000002
   195   1      16.726766329728306      65.331910350063765      18.390070000000001
   196   1      16.726766329728306      65.331910350063765      14.287419999999999
   197   1      5.3034990054826023      2.3894537544897267      22.492730000000002
   198   1      5.3034990054826023      2.3894537544897267      18.390070000000001
   199   1      5.3034990054826023      2.3894537544897267      14.287419999999999
   200   1      64.049839966612367       10.54869539684155      11.292730000000001
   201   1      64.049839966612367       10.54869539684155      7.1900700000000004
   202   1      64.049839966612367       10.54869539684155      3.0874199999999998
   203   1      5.7697656880250578       6.352497389317743      22.492730000000002
   204   1      5.7697656880250578       6.352497389317743      18.390070000000001
   205   1      5.7697656880250578       6.352497389317743      14.287419999999999
   206   1       6.702299053109968      14.278584658973775      22.492730000000002
   207   1       6.702299053109968      14.278584658973775      18.390070000000001
   208   1       6.702299053109968      14.278584658973775      14.287419999999999
   209   1      14.861710699477003      49.479727047658123      18.390070000000001
   210   1      14.861710699477003      49.479727047658123      14.287419999999999
   211   1       63.11735801167638      18.474792013797387      11.292730000000001
   212   1       63.11735801167638      18.474792013797387      7.1900700000000004
   213   1       63.11735801167638      18.474792013797387      3.0874199999999998
   214   1       63.58359898914437      14.511743705319468      11.292730000000001
   215   1       63.58359898914437      14.511743705319468      7.1900700000000004
   216   1       63.58359898914437      14.511743705319468      3.0874199999999998
   217   1      15.794234133055866      57.405813148901686      22.492730000000002
   218   1      15.794234133055866      57.405813148901686      18.390070000000001
   219   1      15.794234133055866      57.405813148901686      14.287419999999999
   220   1      15.327977382019458      53.442770682486149      22.492730000000002
   221   1      15.327977382019458      53.442770682486149      18.390070000000001
   222   1      15.327977382019458      53.442770682486149      14.287419999999999
   223   1      16.260499647185849      61.368866715235747      22.492730000000002
   224   1      16.260499647185849      61.368866715235747      18.390070000000001
   225   1      12.996655069225699      33.627543745252495      22.492730000000002
   226   1      12.996655069225699      33.627543745252495      18.390070000000001
   227   1      12.996655069225699      33.627543745252495      14.287419999999999
   228   1       62.65111703420839      22.437840322275306      11.292730000000001
   229   1       62.65111703420839      22.437840322275306      7.1900700000000004
   230   1       62.65111703420839      22.437840322275306      3.0874199999999998
   231   1      13.929187265898134      41.553640946414568      22.492730000000002
   232   1      13.929187265898134      41.553640946414568      18.390070000000001
   233   1      13.929187265898134      41.553640946414568      14.287419999999999
   234   1      13.462920583355681      37.590597311586556      22.492730000000002
   235   1      13.462920583355681      37.590597311586556      18.390070000000001
   236   1      13.462920583355681      37.590597311586556      14.287419999999999
   237   1      14.395444016934546      45.516683412830112      22.492730000000002
   238   1      14.395444016934546      45.516683412830112      18.390070000000001
   239   1      14.395444016934546      45.516683412830112      14.287419999999999
   240   1      14.861710699477003      49.479727047658123      22.492730000000002
   241   1      10.665341519525509      13.812327907937364      14.287419999999999
   242   1      11.131598270561923      17.775370374352903      22.492730000000002
   243   1      11.131598270561923      17.775370374352903      18.390070000000001
   244   1      11.131598270561923      17.775370374352903      14.287419999999999
   245   1        62.1848760567404      26.400888630753226      11.292730000000001
   246   1        62.1848760567404      26.400888630753226      7.1900700000000004
   247   1        62.1848760567404      26.400888630753226      3.0874199999999998
   248   1      12.064131635646831      25.701457644008936      22.492730000000002
   249   1      12.064131635646831      25.701457644008936      18.390070000000001
   250   1      12.064131635646831      25.701457644008936      14.287419999999999
   251   1      11.597864953104377      21.738414009180921      22.492730000000002
   252   1      11.597864953104377      21.738414009180921      18.390070000000001
   253   1      11.597864953104377      21.738414009180921      14.287419999999999
   254   1      12.530388386683244      29.664500110424481      22.492730000000002
   255   1      12.530388386683244      29.664500110424481      18.390070000000001
   256   1      12.530388386683244      29.664500110424481      14.287419999999999
   257   1      9.2665525718166624      1.9231882403597473      18.390070000000001
   258   1      9.2665525718166624      1.9231882403597473      14.287419999999999
   259   1       61.25239410180442      34.326985247709061      11.292730000000001
   260   1       61.25239410180442      34.326985247709061      7.1900700000000004
   261   1       61.25239410180442      34.326985247709061      3.0874199999999998
   262   1       61.71863507927241      30.363936939231145      11.292730000000001
   263   1       61.71863507927241      30.363936939231145      7.1900700000000004
   264   1       61.71863507927241      30.363936939231145      3.0874199999999998
   265   1      10.199074836983055      9.8492842731093475      22.492730000000002
   266   1      10.199074836983055      9.8492842731093475      18.390070000000001
   267   1      10.199074836983055      9.8492842731093475      14.287419999999999
   268   1      9.7328093228530737      5.8862307067752875      22.492730000000002
   269   1      9.7328093228530737      5.8862307067752875      18.390070000000001
   270   1      9.7328093228530737      5.8862307067752875      14.287419999999999
   271   1      10.665341519525509      13.812327907937364      22.492730000000002
   272   1      10.665341519525509      13.812327907937364      18.390070000000001
   273   1      19.291019848434999       52.97651393144973      22.492730000000002
   274   1      19.291019848434999       52.97651393144973      18.390070000000001
   275   1      19.291019848434999       52.97651393144973      14.287419999999999
   276   1       60.78615312433643      38.290033556186984      11.292730000000001
   277   1       60.78615312433643      38.290033556186984      7.1900700000000004
   278   1       60.78615312433643      38.290033556186984      3.0874199999999998
   279   1      20.223543282013864      60.902600032693286      22.492730000000002
   280   1      20.223543282013864      60.902600032693286      18.390070000000001
   281   1      20.223543282013864      60.902600032693286      14.287419999999999
   282   1       19.75727659947141      56.939556397865275      22.492730000000002
   283   1       19.75727659947141      56.939556397865275      18.390070000000001
   284   1       19.75727659947141      56.939556397865275      14.287419999999999
   285   1      20.689809964556321      64.865643667521297      22.492730000000002
   286   1      20.689809964556321      64.865643667521297      18.390070000000001
   287   1      20.689809964556321      64.865643667521297      14.287419999999999
   288   1      9.2665525718166624      1.9231882403597473      22.492730000000002
   289   1      16.959697535641236      33.161286994216077      14.287419999999999
   290   1      17.425964218183694      37.124330629044096      22.492730000000002
   291   1      17.425964218183694      37.124330629044096      18.390070000000001
   292   1      17.425964218183694      37.124330629044096      14.287419999999999
   293   1       60.31991214686844        42.2530818646649      11.292730000000001
   294   1       60.31991214686844        42.2530818646649      7.1900700000000004
   295   1       60.31991214686844        42.2530818646649      3.0874199999999998
   296   1      18.358487651762562      45.050416730287658      22.492730000000002
   297   1      18.358487651762562      45.050416730287658      18.390070000000001
   298   1      18.358487651762562      45.050416730287658      14.287419999999999
   299   1      17.892230900726151      41.087374263872114      22.492730000000002
   300   1      17.892230900726151      41.087374263872114      18.390070000000001
   301   1      17.892230900726151      41.087374263872114      14.287419999999999
   302   1      18.824754334305016       49.01346036511567      22.492730000000002
   303   1      18.824754334305016       49.01346036511567      18.390070000000001
   304   1      18.824754334305016       49.01346036511567      14.287419999999999
   305   1       15.56090858793239      21.272147326638464      18.390070000000001
   306   1       15.56090858793239      21.272147326638464      14.287419999999999
   307   1      59.387430191932459      50.179178481620738      11.292730000000001
   308   1      59.387430191932459      50.179178481620738      7.1900700000000004
   309   1      59.387430191932459      50.179178481620738      3.0874199999999998
   310   1       59.85367116940045      46.216130173142822      11.292730000000001
   311   1       59.85367116940045      46.216130173142822      7.1900700000000004
   312   1       59.85367116940045      46.216130173142822      3.0874199999999998
   313   1      16.493440784604829       29.19824452780054      22.492730000000002
   314   1      16.493440784604829       29.19824452780054      18.390070000000001
   315   1      16.493440784604829       29.19824452780054      14.287419999999999
   316   1      16.027174102062371      25.235200892972525      22.492730000000002
   317   1      16.027174102062371      25.235200892972525      18.390070000000001
   318   1      16.027174102062371      25.235200892972525      14.287419999999999
   319   1      16.959697535641236      33.161286994216077      22.492730000000002
   320   1      16.959697535641236      33.161286994216077      18.390070000000001
   321   1      13.229595038232203      1.4569314893233352      22.492730000000002
   322   1      13.229595038232203      1.4569314893233352      18.390070000000001
   323   1      13.229595038232203      1.4569314893233352      14.287419999999999
   324   1      58.921190382876944      54.142216858592612      11.292730000000001
   325   1      58.921190382876944      54.142216858592612      7.1900700000000004
   326   1      58.921190382876944      54.142216858592612      3.0874199999999998
   327   1      14.628385154353525      13.346061225394909      22.492730000000002
   328   1      14.628385154353525      13.346061225394909      18.390070000000001
   329   1      14.628385154353525      13.346061225394909      14.287419999999999
   330   1       14.16211847181107       9.383017590566892      22.492730000000002
   331   1       14.16211847181107       9.383017590566892      18.390070000000001
   332   1       14.16211847181107       9.383017590566892      14.287419999999999
   333   1      15.094651836895983      17.309104860222924      22.492730000000002
   334   1      15.094651836895983      17.309104860222924      18.390070000000001
   335   1      15.094651836895983      17.309104860222924      14.287419999999999
   336   1       15.56090858793239      21.272147326638464      22.492730000000002
   337   1      23.254063483263014       52.51024724890727      14.287419999999999
   338   1      24.186586916841879      60.436333350150832      14.287419999999999
   339   1      23.720330165805468      56.473290883735295      22.492730000000002
   340   1      23.720330165805468      56.473290883735295      18.390070000000001
   341   1      23.720330165805468      56.473290883735295      14.287419999999999
   342   1      58.454949405408954      58.105265167070534      11.292730000000001
   343   1      58.454949405408954      58.105265167070534      7.1900700000000004
   344   1      58.454949405408954      58.105265167070534      3.0874199999999998
   345   1      24.652853599384333      64.399376984978844      22.492730000000002
   346   1      24.652853599384333      64.399376984978844      18.390070000000001
   347   1      24.652853599384333      64.399376984978844      14.287419999999999
   348   1      24.186586916841879      60.436333350150832      22.492730000000002
   349   1      24.186586916841879      60.436333350150832      18.390070000000001
   350   1      13.695851789268614      5.4199739557388762      22.492730000000002
   351   1      13.695851789268614      5.4199739557388762      18.390070000000001
   352   1      13.695851789268614      5.4199739557388762      14.287419999999999
   353   1      21.855274535554166       40.62110758132966      22.492730000000002
   354   1      21.855274535554166       40.62110758132966      18.390070000000001
   355   1      21.855274535554166       40.62110758132966      14.287419999999999
   356   1      57.522467450472973      66.031361784026373      11.292730000000001
   357   1      57.522467450472973      66.031361784026373      7.1900700000000004