(written by ASE)

4920 atoms
3 atom types

0.0      57.133533858280416  xlo xhi
0.0      57.133533858280416  ylo yhi
0.0                      50  zlo zhi

Masses

     1       137.3269999646734 # Ba
     2      15.998999995884349 # O
     3      47.866999987686484 # Ti

Atoms # atomic

     1   1      51.489856364450262       52.04725612274656      7.1900700000000004
     2   1      33.095866187027639      44.940233374641707      14.287419999999999
     3   1      47.866765269042375      3.4138427756559064      22.492730000000002
     4   1      46.194591836074402      7.0369541255423655      14.287419999999999
     5   1      46.194591836074402      7.0369541255423655      18.390070000000001
     6   1      28.079314458760408      55.809570916452564      14.287419999999999
     7   1      28.079314458760408      55.809570916452564      18.390070000000001
     8   1      28.079314458760408      55.809570916452564      22.492730000000002
     9   1      19.996734749979034      31.423448303456141      3.0874199999999998
    10   1      19.996734749979034      31.423448303456141      7.1900700000000004
    11   1      19.996734749979034      31.423448303456141      11.292730000000001
    12   1      34.768052890171234      41.317126913767311      22.492730000000002
    13   1      16.373631781256123      33.095649673635947      7.1900700000000004
    14   1      16.373631781256123      33.095649673635947      11.292730000000001
    15   1      29.751496971322229       52.18645537598433      14.287419999999999
    16   1      29.751496971322229       52.18645537598433      18.390070000000001
    17   1      33.374345711417476      3.2747252387627461      3.0874199999999998
    18   1      33.374345711417476      3.2747252387627461      7.1900700000000004
    19   1      33.374345711417476      3.2747252387627461      11.292730000000001
    20   1      2.4386294426849209      21.947636348522138      7.1900700000000004
    21   1      2.4386294426849209      21.947636348522138      11.292730000000001
    22   1      57.063860931716285      45.079750413664037      11.292730000000001
    23   1      56.785160703352986      53.998157721289672      7.1900700000000004
    24   1      56.785160703352986      53.998157721289672      11.292730000000001
    25   1      53.162057734630068      55.670359091469479      3.0874199999999998
    26   1      53.162057734630068      55.670359091469479      7.1900700000000004
    27   1      53.162057734630068      55.670359091469479      11.292730000000001
    28   1      51.489856364450262       52.04725612274656      11.292730000000001
    29   1      47.866753395727351      53.719457492926367      3.0874199999999998
    30   1      47.866753395727351      53.719457492926367      7.1900700000000004
    31   1      47.866753395727351      53.719457492926367      11.292730000000001
    32   1      51.489856364450262       52.04725612274656      3.0874199999999998
    33   1      53.440757962993374      46.751951783843843      7.1900700000000004
    34   1      53.440757962993374      46.751951783843843      11.292730000000001
    35   1      1.8813114007332181      17.349081183667082      18.390070000000001
    36   1      1.8813114007332181      17.349081183667082      22.492730000000002
    37   1     0.20912469758962501      20.972187644541471      14.287419999999999
    38   1     0.20912469758962501      20.972187644541471      18.390070000000001
    39   1     0.20912469758962501      20.972187644541471      22.492730000000002
    40   1      49.817654994270455      48.424153154023649      3.0874199999999998
    41   1      26.128139773971654      6.6191279791223581      7.1900700000000004
    42   1      26.128139773971654      6.6191279791223581      11.292730000000001
    43   1      22.505036805248739      8.2913293493021651      3.0874199999999998
    44   1      22.505036805248739      8.2913293493021651      7.1900700000000004
    45   1      22.505036805248739      8.2913293493021651      11.292730000000001
    46   1      6.0617324114078324      20.275434978342332      3.0874199999999998
    47   1      6.0617324114078324      20.275434978342332      7.1900700000000004
    48   1      6.0617324114078324      20.275434978342332      11.292730000000001
    49   1      9.6848263005368995      18.603237798744303      3.0874199999999998
    50   1      9.6848263005368995      18.603237798744303      7.1900700000000004
    51   1      9.6848263005368995      18.603237798744303      11.292730000000001
    52   1      18.881933836525828      9.9635307194819696      3.0874199999999998
    53   1      18.881933836525828      9.9635307194819696      7.1900700000000004
    54   1      49.817654994270455      48.424153154023649      11.292730000000001
    55   1      3.5534939132950378      13.725965643198844      14.287419999999999
    56   1      3.5534939132950378      13.725965643198844      18.390070000000001
    57   1      3.5534939132950378      13.725965643198844      22.492730000000002
    58   1      1.8813114007332181      17.349081183667082      14.287419999999999
    59   1      46.194552025547544      50.096354524203456      3.0874199999999998
    60   1      46.194552025547544      50.096354524203456      7.1900700000000004
    61   1      46.194552025547544      50.096354524203456      11.292730000000001
    62   1      42.571449056824633      51.768555894383262      3.0874199999999998
    63   1      42.571449056824633      51.768555894383262      7.1900700000000004
    64   1      53.440757962993374      46.751951783843843      3.0874199999999998
    65   1      16.931032237982723       15.25883505838469      11.292730000000001
    66   1      13.307929269259811      16.931036428564497      3.0874199999999998
    67   1      13.307929269259811      16.931036428564497      7.1900700000000004
    68   1      42.571449056824633      51.768555894383262      11.292730000000001
    69   1      5.2256806164386322      10.102859182324453      14.287419999999999
    70   1      5.2256806164386322      10.102859182324453      18.390070000000001
    71   1      5.2256806164386322      10.102859182324453      22.492730000000002
    72   1      8.5700498321440453       2.856637180981827      18.390070000000001
    73   1      8.5700498321440453       2.856637180981827      22.492730000000002
    74   1      6.8978631290004513      6.4797436418562171      14.287419999999999
    75   1      6.8978631290004513      6.4797436418562171      18.390070000000001
    76   1      6.8978631290004513      6.4797436418562171      22.492730000000002
    77   1      15.258830867802917      11.635732089661776      3.0874199999999998
    78   1      15.258830867802917      11.635732089661776      7.1900700000000004
    79   1      15.258830867802917      11.635732089661776      11.292730000000001
    80   1      11.635727899080004      13.307933459841582      3.0874199999999998
    81   1        31.7021401506559       56.78516000492268      11.292730000000001
    82   1      38.948346088101722      53.440757264563068      3.0874199999999998
    83   1      38.948346088101722      53.440757264563068      7.1900700000000004
    84   1      38.948346088101722      53.440757264563068      11.292730000000001
    85   1      8.5700498321440453       2.856637180981827      14.287419999999999
    86   1      35.325243119378811      55.112958634742874      3.0874199999999998
    87   1      35.325243119378811      55.112958634742874      7.1900700000000004
    88   1      35.325243119378811      55.112958634742874      11.292730000000001
    89   1      2.1600535349142667      26.267476617977682      22.492730000000002
    90   1      18.881933836525828      9.9635307194819696      11.292730000000001
    91   1      11.635727899080004      13.307933459841582      7.1900700000000004
    92   1      11.635727899080004      13.307933459841582      11.292730000000001
    93   1      8.0126249303570933      14.980134830021386      3.0874199999999998
    94   1      8.0126249303570933      14.980134830021386      7.1900700000000004
    95   1      8.0126249303570933      14.980134830021386      11.292730000000001
    96   1      16.931032237982723       15.25883505838469      7.1900700000000004
    97   1      3.8322402380578606      22.644370157103292      14.287419999999999
    98   1      3.8322402380578606      22.644370157103292      18.390070000000001
    99   1      3.8322402380578606      22.644370157103292      22.492730000000002
   100   1      2.1600535349142667      26.267476617977682      14.287419999999999
   101   1      2.1600535349142667      26.267476617977682      18.390070000000001
   102   1        31.7021401506559       56.78516000492268      3.0874199999999998
   103   1        31.7021401506559       56.78516000492268      7.1900700000000004
   104   1      13.307929269259811      16.931036428564497      11.292730000000001
   105   1     0.76642807250511402      18.324533379799224      7.1900700000000004
   106   1     0.76642807250511402      18.324533379799224      11.292730000000001
   107   1      4.3895310412280253      16.652332009619418      3.0874199999999998
   108   1      4.3895310412280253      16.652332009619418      7.1900700000000004
   109   1      4.3895310412280253      16.652332009619418      11.292730000000001
   110   1      20.554135206705634      13.586633688204884      3.0874199999999998
   111   1      20.554135206705634      13.586633688204884      7.1900700000000004
   112   1      20.554135206705634      13.586633688204884      11.292730000000001
   113   1      40.899247686644827      48.145452925660351      3.0874199999999998
   114   1      55.391659561536478      41.456647444941126      3.0874199999999998
   115   1      55.391659561536478      41.456647444941126      7.1900700000000004
   116   1      55.391659561536478      41.456647444941126      11.292730000000001
   117   1      51.768556592813567      43.128848815120932      3.0874199999999998
   118   1      51.768556592813567      43.128848815120932      7.1900700000000004
   119   1      51.768556592813567      43.128848815120932      11.292730000000001
   120   1      48.145453624090649      44.801050185300738      3.0874199999999998
   121   1      48.145453624090649      44.801050185300738      7.1900700000000004
   122   1      48.145453624090649      44.801050185300738      11.292730000000001
   123   1       5.504422750619681      19.021254616635055      14.287419999999999
   124   1       5.504422750619681      19.021254616635055      18.390070000000001
   125   1       5.504422750619681      19.021254616635055      22.492730000000002
   126   1     0.48787102235244684      29.890592158445916      14.287419999999999
   127   1     0.48787102235244684      29.890592158445916      18.390070000000001
   128   1     0.48787102235244684      29.890592158445916      22.492730000000002
   129   1      8.8487828867312484      11.775036805874201      22.492730000000002
   130   1      7.1766094537632741      15.398148155760664      14.287419999999999
   131   1      7.1766094537632741      15.398148155760664      18.390070000000001
   132   1      7.1766094537632741      15.398148155760664      22.492730000000002
   133   1      44.522350655367738      46.473251555480545      3.0874199999999998
   134   1      44.522350655367738      46.473251555480545      7.1900700000000004
   135   1      44.522350655367738      46.473251555480545      11.292730000000001
   136   1      16.931032237982723       15.25883505838469      3.0874199999999998
   137   1       27.80034114415146      10.242230947845272      7.1900700000000004
   138   1       27.80034114415146      10.242230947845272      11.292730000000001
   139   1      28.079041372514759      1.3238236402196435      3.0874199999999998
   140   1      28.079041372514759      1.3238236402196435      7.1900700000000004
   141   1      28.079041372514759      1.3238236402196435      11.292730000000001
   142   1      24.177238175428545       11.91443231802508      3.0874199999999998
   143   1      24.177238175428545       11.91443231802508      7.1900700000000004
   144   1      24.177238175428545       11.91443231802508      11.292730000000001
   145   1      8.8487828867312484      11.775036805874201      14.287419999999999
   146   1      8.8487828867312484      11.775036805874201      18.390070000000001
   147   1      40.899247686644827      48.145452925660351      11.292730000000001
   148   1      37.276144717921916      49.817654295840157      3.0874199999999998
   149   1      37.276144717921916      49.817654295840157      7.1900700000000004
   150   1      37.276144717921916      49.817654295840157      11.292730000000001
   151   1     0.76642807250511402      18.324533379799224      3.0874199999999998
   152   1      35.046547081597282      6.8978282074856612      11.292730000000001
   153   1      31.423444112874371      8.5700295776654674      3.0874199999999998
   154   1      24.455938403791848      2.9960250103994488      3.0874199999999998
   155   1      24.455938403791848      2.9960250103994488      7.1900700000000004
   156   1      24.455938403791848      2.9960250103994488      11.292730000000001
   157   1      20.832835435068933       4.668226380579255      3.0874199999999998
   158   1      20.832835435068933       4.668226380579255      7.1900700000000004
   159   1      31.423444112874371      8.5700295776654674      7.1900700000000004
   160   1      31.423444112874371      8.5700295776654674      11.292730000000001
   161   1      17.209732466346022      6.3404277507590603      11.292730000000001
   162   1      35.046547081597282      6.8978282074856612      3.0874199999999998
   163   1      4.1109865628206821      31.562774671007737      14.287419999999999
   164   1      13.865338805580254     0.90570834365718489      14.287419999999999
   165   1      13.865338805580254     0.90570834365718489      18.390070000000001
   166   1      13.865338805580254     0.90570834365718489      22.492730000000002
   167   1      12.193152102436661       4.528814804531577      14.287419999999999
   168   1      12.193152102436661       4.528814804531577      18.390070000000001
   169   1      12.193152102436661       4.528814804531577      22.492730000000002
   170   1      33.653041749199005      51.489855666019963      3.0874199999999998
   171   1      33.653041749199005      51.489855666019963      7.1900700000000004
   172   1      33.653041749199005      51.489855666019963      11.292730000000001
   173   1      40.899247686644827      48.145452925660351      7.1900700000000004
   174   1      10.520969589874843       8.151930344999812      14.287419999999999
   175   1      10.520969589874843       8.151930344999812      18.390070000000001
   176   1      10.520969589874843       8.151930344999812      22.492730000000002
   177   1      22.783741922624113      56.506455585977605      3.0874199999999998
   178   1     0.76661734711526885      38.808996672350361      14.287419999999999
   179   1     0.76661734711526885      38.808996672350361      18.390070000000001
   180   1     0.76661734711526885      38.808996672350361      22.492730000000002
   181   1      30.029938780476094      53.162057036199769      3.0874199999999998
   182   1      30.029938780476094      53.162057036199769      7.1900700000000004
   183   1      30.029938780476094      53.162057036199769      11.292730000000001
   184   1      26.406835811753183      54.834258406379575      3.0874199999999998
   185   1      26.406835811753183      54.834258406379575      7.1900700000000004
   186   1       27.80034114415146      10.242230947845272      3.0874199999999998
   187   1      13.586629497623111      8.0126291209388665      3.0874199999999998
   188   1      13.586629497623111      8.0126291209388665      7.1900700000000004
   189   1      13.586629497623111      8.0126291209388665      11.292730000000001
   190   1      20.832835435068933       4.668226380579255      11.292730000000001
   191   1      17.209732466346022      6.3404277507590603      3.0874199999999998
   192   1      17.209732466346022      6.3404277507590603      7.1900700000000004
   193   1       5.783169075382502      27.939659130539503      14.287419999999999
   194   1       5.783169075382502      27.939659130539503      18.390070000000001
   195   1       5.783169075382502      27.939659130539503      22.492730000000002
   196   1      26.406835811753183      54.834258406379575      11.292730000000001
   197   1      35.046547081597282      6.8978282074856612      7.1900700000000004
   198   1      42.292753019043104      3.5534254671260506      3.0874199999999998
   199   1      42.292753019043104      3.5534254671260506      7.1900700000000004
   200   1      42.292753019043104      3.5534254671260506      11.292730000000001
   201   1      9.9635265289001982      9.6848304911186727      3.0874199999999998
   202   1      9.9635265289001982      9.6848304911186727      7.1900700000000004
   203   1      9.9635265289001982      9.6848304911186727      11.292730000000001
   204   1      6.3404235601772871      11.357031861298477      3.0874199999999998
   205   1      6.3404235601772871      11.357031861298477      7.1900700000000004
   206   1        38.6696500503202      5.2256268373058541      3.0874199999999998
   207   1        38.6696500503202      5.2256268373058541      7.1900700000000004
   208   1        38.6696500503202      5.2256268373058541      11.292730000000001
   209   1      45.915855987766015      1.8812240969462442      11.292730000000001
   210   1      22.783741922624113      56.506455585977605      7.1900700000000004
   211   1      22.783741922624113      56.506455585977605      11.292730000000001
   212   1      53.719458191356679      37.833544476218215      3.0874199999999998
   213   1      7.4553466989322512      24.316556860246887      14.287419999999999
   214   1      7.4553466989322512      24.316556860246887      18.390070000000001
   215   1      7.4553466989322512      24.316556860246887      22.492730000000002
   216   1      53.719458191356679      37.833544476218215      7.1900700000000004
   217   1      53.719458191356679      37.833544476218215      11.292730000000001
   218   1      50.096355222633761      39.505745846398021      3.0874199999999998
   219   1      50.096355222633761      39.505745846398021      7.1900700000000004
   220   1      4.1109865628206821      31.562774671007737      18.390070000000001
   221   1      4.1109865628206821      31.562774671007737      22.492730000000002
   222   1      2.4387998596770886      35.185881131882127      14.287419999999999
   223   1      2.4387998596770886      35.185881131882127      18.390070000000001
   224   1      2.4387998596770886      35.185881131882127      22.492730000000002
   225   1      49.538949876895082     0.20902691734821355      11.292730000000001
   226   1      50.096355222633761      39.505745846398021      11.292730000000001
   227   1      10.799715914637666      17.070334858904257      14.287419999999999
   228   1      10.799715914637666      17.070334858904257      18.390070000000001
   229   1      10.799715914637666      17.070334858904257      22.492730000000002
   230   1      9.1275292114940694      20.693441319778646      14.287419999999999
   231   1      9.1275292114940694      20.693441319778646      18.390070000000001
   232   1      9.1275292114940694      20.693441319778646      22.492730000000002
   233   1       46.47325225391085      41.177947216577827      3.0874199999999998
   234   1       46.47325225391085      41.177947216577827      7.1900700000000004
   235   1       46.47325225391085      41.177947216577827      11.292730000000001
   236   1      6.3404235601772871      11.357031861298477      11.292730000000001
   237   1        2.71732967104822      13.029229040896508      3.0874199999999998
   238   1        2.71732967104822      13.029229040896508      7.1900700000000004
   239   1        2.71732967104822      13.029229040896508      11.292730000000001
   240   1      45.915855987766015      1.8812240969462442      7.1900700000000004
   241   1      12.471898427199486      13.447219318436023      18.390070000000001
   242   1      12.471898427199486      13.447219318436023      22.492730000000002
   243   1      14.144085130343079      9.8241128575616319      14.287419999999999
   244   1      14.144085130343079      9.8241128575616319      18.390070000000001
   245   1      14.144085130343079      9.8241128575616319      22.492730000000002
   246   1      42.850149285187939      42.850148586757633      3.0874199999999998
   247   1      42.850149285187939      42.850148586757633      7.1900700000000004
   248   1      42.850149285187939      42.850148586757633      11.292730000000001
   249   1     0.48772784414181358      27.242940687424856      3.0874199999999998
   250   1     0.48772784414181358      27.242940687424856      7.1900700000000004
   251   1     0.48772784414181358      27.242940687424856      11.292730000000001
   252   1      19.160634064889127      1.0451234118563424      3.0874199999999998
   253   1      19.160634064889127      1.0451234118563424      7.1900700000000004
   254   1      19.160634064889127      1.0451234118563424      11.292730000000001
   255   1      49.538949876895082     0.20902691734821355      3.0874199999999998
   256   1      49.538949876895082     0.20902691734821355      7.1900700000000004
   257   1      15.537531096166218      2.7173247820361475      11.292730000000001
   258   1      11.914428127443307      4.3895261522159528      3.0874199999999998
   259   1      11.914428127443307      4.3895261522159528      7.1900700000000004
   260   1      11.914428127443307      4.3895261522159528      11.292730000000001
   261   1      39.227046316465028       44.52234995693744      3.0874199999999998
   262   1      17.488445266454647      2.5778950468007791      14.287419999999999
   263   1      17.488445266454647      2.5778950468007791      18.390070000000001
   264   1      17.488445266454647      2.5778950468007791      22.492730000000002
   265   1      15.816267642904899      6.2009973170933952      14.287419999999999
   266   1      15.816267642904899      6.2009973170933952      18.390070000000001
   267   1      15.816267642904899      6.2009973170933952      22.492730000000002
   268   1      39.227046316465028       44.52234995693744      7.1900700000000004
   269   1      39.227046316465028       44.52234995693744      11.292730000000001
   270   1      35.603943347742117      46.194551327117246      3.0874199999999998
   271   1      35.603943347742117      46.194551327117246      7.1900700000000004
   272   1      12.471898427199486      13.447219318436023      14.287419999999999
   273   1      4.1108308128647257      25.570739317245049      7.1900700000000004
   274   1      4.1108308128647257      25.570739317245049      11.292730000000001
   275   1       24.73463444157338      51.211155437656664      3.0874199999999998
   276   1      35.603943347742117      46.194551327117246      11.292730000000001
   277   1      1.0453636718780908      47.727401186254809      14.287419999999999
   278   1      1.0453636718780908      47.727401186254809      18.390070000000001
   279   1      1.0453636718780908      47.727401186254809      22.492730000000002
   280   1      31.980840379019202      47.866752697297052      3.0874199999999998
   281   1      31.980840379019202      47.866752697297052      7.1900700000000004
   282   1      31.980840379019202      47.866752697297052      11.292730000000001
   283   1      45.915855987766015      1.8812240969462442      3.0874199999999998
   284   1      8.2913251587203938       6.061727522395759      3.0874199999999998
   285   1      8.2913251587203938       6.061727522395759      7.1900700000000004
   286   1      8.2913251587203938       6.061727522395759      11.292730000000001
   287   1      15.537531096166218      2.7173247820361475      3.0874199999999998
   288   1      15.537531096166218      2.7173247820361475      7.1900700000000004
   289   1       21.11154055244431      52.883352617254694      3.0874199999999998
   290   1       4.389723807989661      40.481183375493956      18.390070000000001
   291   1       4.389723807989661      40.481183375493956      22.492730000000002
   292   1      2.7175461844399122      44.104285645786575      14.287419999999999
   293   1      2.7175461844399122      44.104285645786575      18.390070000000001
   294   1      2.7175461844399122      44.104285645786575      22.492730000000002
   295   1      28.357737410296291      49.538954067476858      3.0874199999999998
   296   1      28.357737410296291      49.538954067476858      7.1900700000000004
   297   1      28.357737410296291      49.538954067476858      11.292730000000001
   298   1      7.7339337815876368      23.898537947065243      3.0874199999999998
   299   1      4.6682221899974818      7.7339288925755652      3.0874199999999998
   300   1      4.6682221899974818      7.7339288925755652      7.1900700000000004
   301   1      4.6682221899974818      7.7339288925755652      11.292730000000001
   302   1      7.7339337815876368      23.898537947065243      7.1900700000000004
   303   1      7.7339337815876368      23.898537947065243      11.292730000000001
   304   1      4.1108308128647257      25.570739317245049      3.0874199999999998
   305   1      6.0619063205514809      36.858067835025722      18.390070000000001
   306   1      6.0619063205514809      36.858067835025722      22.492730000000002
   307   1       4.389723807989661      40.481183375493956      14.287419999999999
   308   1      7.7340930236950722      33.234961374151325      14.287419999999999
   309   1      7.7340930236950722      33.234961374151325      18.390070000000001
   310   1      7.7340930236950722      33.234961374151325      22.492730000000002
   311   1       24.73463444157338      51.211155437656664      7.1900700000000004
   312   1       24.73463444157338      51.211155437656664      11.292730000000001
   313   1        10.2422267572635     0.76642318349304128      3.0874199999999998
   314   1        10.2422267572635     0.76642318349304128      7.1900700000000004
   315   1        10.2422267572635     0.76642318349304128      11.292730000000001
   316   1      1.0451283008684145      9.4061260721735955      3.0874199999999998
   317   1      1.0451283008684145      9.4061260721735955      7.1900700000000004
   318   1      1.0451283008684145      9.4061260721735955      11.292730000000001
   319   1      11.357027670716704      22.226340767467214      3.0874199999999998
   320   1      11.357027670716704      22.226340767467214      7.1900700000000004
   321   1      2.9960208198176752      4.1108259238526532      7.1900700000000004
   322   1      14.980130639439615      20.554139397287408      3.0874199999999998
   323   1      14.980130639439615      20.554139397287408      7.1900700000000004
   324   1      14.980130639439615      20.554139397287408      11.292730000000001
   325   1      14.422831455105902      18.742517371466079      14.287419999999999
   326   1       21.11154055244431      52.883352617254694      7.1900700000000004
   327   1       21.11154055244431      52.883352617254694      11.292730000000001
   328   1      11.078462239400487      25.988739372808705      18.390070000000001
   329   1      11.078462239400487      25.988739372808705      22.492730000000002
   330   1      9.4062755362568939      29.611845833683095      14.287419999999999
   331   1      9.4062755362568939      29.611845833683095      18.390070000000001
   332   1      9.4062755362568939      29.611845833683095      22.492730000000002
   333   1      17.488437583721399        54.5555539874345      3.0874199999999998
   334   1      17.488437583721399        54.5555539874345      7.1900700000000004
   335   1      17.488437583721399        54.5555539874345      11.292730000000001
   336   1      6.0619063205514809      36.858067835025722      14.287419999999999
   337   1      12.750644751962305      22.365623832340468      18.390070000000001
   338   1      12.750644751962305      22.365623832340468      22.492730000000002
   339   1      11.078462239400487      25.988739372808705      14.287419999999999
   340   1      13.865334614998488      56.227755357614306      3.0874199999999998
   341   1      13.865334614998488      56.227755357614306      7.1900700000000004
   342   1      13.865334614998488      56.227755357614306      11.292730000000001
   343   1      55.670359789899777      32.538240137315505      3.0874199999999998
   344   1      55.670359789899777      32.538240137315505      7.1900700000000004
   345   1      55.670359789899777      32.538240137315505      11.292730000000001
   346   1      52.047256821176873      34.210441507495304      3.0874199999999998
   347   1      11.357027670716704      22.226340767467214      11.292730000000001
   348   1       18.60323360816253      18.881938027107601      11.292730000000001
   349   1      6.6191237885405867      2.4386245536728475      3.0874199999999998
   350   1      6.6191237885405867      2.4386245536728475      7.1900700000000004
   351   1      6.6191237885405867      2.4386245536728475      11.292730000000001
   352   1      2.9960208198176752      4.1108259238526532      3.0874199999999998
   353   1      1.3238194496378697     0.48772295512974134      7.1900700000000004
   354   1      1.3238194496378697     0.48772295512974134      11.292730000000001
   355   1      2.9960208198176752      4.1108259238526532      11.292730000000001
   356   1      22.226336576885441      17.209736656927795      7.1900700000000004
   357   1      22.226336576885441      17.209736656927795      11.292730000000001