(written by ASE)

1464 atoms
3 atom types

0.0      31.165857034249466  xlo xhi
0.0      31.165857034249466  ylo yhi
0.0                      50  zlo zhi

Masses

     1       137.3269999646734 # Ba
     2      15.998999995884349 # O
     3      47.866999987686484 # Ti

Atoms # atomic

     1   1       27.71718177817025      24.396222644173161      3.0874199999999998
     2   1      30.782676607850028      26.950801668906308      11.292730000000001
     3   1      30.782676607850028      26.950801668906308      7.1900700000000004
     4   1      30.782676607850028      26.950801668906308      3.0874199999999998
     5   1      28.228097583116881      30.016296498586087      11.292730000000001
     6   1      9.0682581145241326      24.907325382964494      22.492730000000002
     7   1      23.118933131806589      4.9814297384140378      7.1900700000000004
     8   1      23.118933131806589      4.9814297384140378      3.0874199999999998
     9   1      20.564354107073441      8.0469245680938144      11.292730000000001
    10   1      20.564354107073441      8.0469245680938144      7.1900700000000004
    11   1      20.564354107073441      8.0469245680938144      3.0874199999999998
    12   1      15.199350203387633      19.798288968534134      22.492730000000002
    13   1      15.199350203387633      19.798288968534134      18.390070000000001
    14   1      15.199350203387633      19.798288968534134      14.287419999999999
    15   1      18.009775082340294      11.112419397773591      11.292730000000001
    16   1      18.009775082340294      11.112419397773591      7.1900700000000004
    17   1       6.258717970411813      6.5141694710411304      3.0874199999999998
    18   1      11.367869618034112     0.38318749389437234      11.292730000000001
    19   1      11.367869618034112     0.38318749389437234      7.1900700000000004
    20   1      11.367869618034112     0.38318749389437234      3.0874199999999998
    21   1      19.542528899024184       27.97263327879957      3.0874199999999998
    22   1      16.987949874291036      31.038128108479349      11.292730000000001
    23   1      16.987949874291036      31.038128108479349      7.1900700000000004
    24   1      16.987949874291036      31.038128108479349      3.0874199999999998
    25   1        30.2717544010594      21.330735496706179      11.292730000000001
    26   1        30.2717544010594      21.330735496706179      7.1900700000000004
    27   1        30.2717544010594      21.330735496706179      3.0874199999999998
    28   1      2.4267559663897398      4.4705625874817825      22.492730000000002
    29   1      2.4267559663897398      4.4705625874817825      18.390070000000001
    30   1      2.4267559663897398      4.4705625874817825      14.287419999999999
    31   1      28.228097583116881      30.016296498586087      7.1900700000000004
    32   1       27.71718177817025      24.396222644173161      7.1900700000000004
    33   1      3.1932231407320346      3.9595904463079821      3.0874199999999998
    34   1     0.63864411599888748      7.0250852759877587      11.292730000000001
    35   1      24.651686948490479      21.841643619440017      11.292730000000001
    36   1      24.651686948490479      21.841643619440017      7.1900700000000004
    37   1      24.651686948490479      21.841643619440017      3.0874199999999998
    38   1       8.046827260065065       4.981589784513953      22.492730000000002
    39   1       8.046827260065065       4.981589784513953      18.390070000000001
    40   1       8.046827260065065       4.981589784513953      14.287419999999999
    41   1      4.9812773745269174      7.5361047908071344      22.492730000000002
    42   1      4.9812773745269174      7.5361047908071344      18.390070000000001
    43   1      4.9812773745269174      7.5361047908071344      14.287419999999999
    44   1      11.112369463390417      2.4270683763767753      22.492730000000002
    45   1      8.8132905933009642      3.4486823235741491      11.292730000000001
    46   1      8.8132905933009642      3.4486823235741491      7.1900700000000004
    47   1      8.8132905933009642      3.4486823235741491      3.0874199999999998
    48   1      14.433364447713888      2.9377665186275199      11.292730000000001
    49   1      29.760838596112777      15.710661642293259      7.1900700000000004
    50   1      29.760838596112777      15.710661642293259      3.0874199999999998
    51   1      27.206259571379629      18.776156471973035      11.292730000000001
    52   1      27.206259571379629      18.776156471973035      7.1900700000000004
    53   1      27.206259571379629      18.776156471973035      3.0874199999999998
    54   1      1.9157351712015647      10.090626198944312      22.492730000000002
    55   1      1.9157351712015647      10.090626198944312      18.390070000000001
    56   1      1.9157351712015647      10.090626198944312      14.287419999999999
    57   1      11.878785422980741       6.003261348307297      11.292730000000001
    58   1      11.878785422980741       6.003261348307297      7.1900700000000004
    59   1      11.878785422980741       6.003261348307297      3.0874199999999998
    60   1      9.3242128000915887      9.0687484957742779      11.292730000000001
    61   1      9.3242128000915887      9.0687484957742779      7.1900700000000004
    62   1      9.3242128000915887      9.0687484957742779      3.0874199999999998
    63   1      3.1932231407320346      3.9595904463079821      11.292730000000001
    64   1      3.1932231407320346      3.9595904463079821      7.1900700000000004
    65   1      6.7696337753584421      12.134243325454054      11.292730000000001
    66   1      6.7696337753584421      12.134243325454054      7.1900700000000004
    67   1      6.7696337753584421      12.134243325454054      3.0874199999999998
    68   1     0.12772831105225779      1.4050114215748348      11.292730000000001
    69   1     0.12772831105225779      1.4050114215748348      7.1900700000000004
    70   1     0.12772831105225779      1.4050114215748348      3.0874199999999998
    71   1      13.922455044611256      28.483549083746198      11.292730000000001
    72   1      13.922455044611256      28.483549083746198      7.1900700000000004
    73   1      13.922455044611256      28.483549083746198      3.0874199999999998
    74   1      16.732426673008952      2.9380968537777461      22.492730000000002
    75   1      16.732426673008952      2.9380968537777461      18.390070000000001
    76   1      16.732426673008952      2.9380968537777461      14.287419999999999
    77   1      19.797976558547099     0.38358184748456342      22.492730000000002
    78   1      19.797976558547099     0.38358184748456342      18.390070000000001
    79   1      19.797976558547099     0.38358184748456342      14.287419999999999
    80   1      29.760838596112777      15.710661642293259      11.292730000000001
    81   1      28.482965235573708      29.505951738123962      22.492730000000002
    82   1      28.482965235573708      29.505951738123962      18.390070000000001
    83   1      28.482965235573708      29.505951738123962      14.287419999999999
    84   1      7.5357923808200988      10.601654676345282      14.287419999999999
    85   1      19.031613094077553      22.352559424386644      11.292730000000001
    86   1      19.031613094077553      22.352559424386644      7.1900700000000004
    87   1      19.031613094077553      22.352559424386644      3.0874199999999998
    88   1      16.477034069344406      25.418054254066419      11.292730000000001
    89   1      16.477034069344406      25.418054254066419      7.1900700000000004
    90   1      16.477034069344406      25.418054254066419      3.0874199999999998
    91   1      13.666884469683598      5.4926182619149237      22.492730000000002
    92   1      13.666884469683598      5.4926182619149237      18.390070000000001
    93   1      13.666884469683598      5.4926182619149237      14.287419999999999
    94   1      5.7477957636211858     0.89410329884100082      11.292730000000001
    95   1      5.7477957636211858     0.89410329884100082      7.1900700000000004
    96   1      5.7477957636211858     0.89410329884100082      3.0874199999999998
    97   1      4.4702488971259475      13.156162000425667      18.390070000000001
    98   1      4.4702488971259475      13.156162000425667      14.287419999999999
    99   1        21.5861921188107      19.287064594706866      11.292730000000001
   100   1        21.5861921188107      19.287064594706866      7.1900700000000004
   101   1        21.5861921188107      19.287064594706866      3.0874199999999998
   102   1      10.601334584145452      8.0471332682081052      22.492730000000002
   103   1      10.601334584145452      8.0471332682081052      18.390070000000001
   104   1      10.601334584145452      8.0471332682081052      14.287419999999999
   105   1      7.5357923808200988      10.601654676345282      22.492730000000002
   106   1      7.5357923808200988      10.601654676345282      18.390070000000001
   107   1      4.2150547506252938      15.199738155133833      11.292730000000001
   108   1      4.2150547506252938      15.199738155133833      7.1900700000000004
   109   1      4.2150547506252938      15.199738155133833      3.0874199999999998
   110   1      22.862900343742378      28.994916858878991      22.492730000000002
   111   1      22.862900343742378      28.994916858878991      18.390070000000001
   112   1      22.862900343742378      28.994916858878991      14.287419999999999
   113   1      24.140764741699851      16.221577447239884      7.1900700000000004
   114   1      24.140764741699851      16.221577447239884      3.0874199999999998
   115   1      1.4047066938005954      15.710683408562845      22.492730000000002
   116   1      1.4047066938005954      15.710683408562845      18.390070000000001
   117   1      1.4047066938005954      15.710683408562845      14.287419999999999
   118   1      25.928443827436528      26.440409534798608      22.492730000000002
   119   1      25.928443827436528      26.440409534798608      18.390070000000001
   120   1      25.928443827436528      26.440409534798608      14.287419999999999
   121   1      1.6604757258921465      18.265232984813611      11.292730000000001
   122   1      1.6604757258921465      18.265232984813611      7.1900700000000004
   123   1      1.6604757258921465      18.265232984813611      3.0874199999999998
   124   1      14.177286846741698      31.038411069983997      18.390070000000001
   125   1      14.177286846741698      31.038411069983997      14.287419999999999
   126   1      28.993986030761882      23.885888126661431      22.492730000000002
   127   1      28.993986030761882      23.885888126661431      18.390070000000001
   128   1      4.4702488971259475      13.156162000425667      22.492730000000002
   129   1      17.242836732279848      28.483896063690814      22.492730000000002
   130   1      17.242836732279848      28.483896063690814      18.390070000000001
   131   1      17.242836732279848      28.483896063690814      14.287419999999999
   132   1      14.177286846741698      31.038411069983997      22.492730000000002
   133   1      19.286948081146129       6.003639057103098      14.287419999999999
   134   1      29.249922791166146      10.090587787880331      11.292730000000001
   135   1      29.249922791166146      10.090587787880331      7.1900700000000004
   136   1      29.249922791166146      10.090587787880331      3.0874199999999998
   137   1      26.695343766432998      13.156082617560108      11.292730000000001
   138   1      26.695343766432998      13.156082617560108      7.1900700000000004
   139   1      26.695343766432998      13.156082617560108      3.0874199999999998
   140   1      25.418033768165632     0.89461032488553438      22.492730000000002
   141   1      25.418033768165632     0.89461032488553438      18.390070000000001
   142   1      25.418033768165632     0.89461032488553438      14.287419999999999
   143   1      22.352491564840282       3.449131733022714      22.492730000000002
   144   1      24.140764741699851      16.221577447239884      11.292730000000001
   145   1      16.221405877820775      8.5581604652402756      18.390070000000001
   146   1      16.221405877820775      8.5581604652402756      14.287419999999999
   147   1      8.3023811901983322      28.994464888692825      11.292730000000001
   148   1      8.3023811901983322      28.994464888692825      7.1900700000000004
   149   1      8.3023811901983322      28.994464888692825      3.0874199999999998
   150   1      22.352491564840282       3.449131733022714      18.390070000000001
   151   1      22.352491564840282       3.449131733022714      14.287419999999999
   152   1      19.286948081146129       6.003639057103098      22.492730000000002
   153   1      19.286948081146129       6.003639057103098      18.390070000000001
   154   1      28.993986030761882      23.885888126661431      14.287419999999999
   155   1      20.053438302126811      2.4268507136808886      11.292730000000001
   156   1      20.053438302126811      2.4268507136808886      7.1900700000000004
   157   1      20.053438302126811      2.4268507136808886      3.0874199999999998
   158   1      20.308378935605198      25.929374655553637      22.492730000000002
   159   1      20.308378935605198      25.929374655553637      18.390070000000001
   160   1      20.308378935605198      25.929374655553637      14.287419999999999
   161   1      23.373928821143345      23.374859649260458      14.287419999999999
   162   1      14.944280252660517      8.5578403730404418      11.292730000000001
   163   1      14.944280252660517      8.5578403730404418      7.1900700000000004
   164   1      14.944280252660517      8.5578403730404418      3.0874199999999998
   165   1      7.0247639034191272      16.221711885963817      14.287419999999999
   166   1      13.411539239664625      22.863475229333272      11.292730000000001
   167   1      13.411539239664625      22.863475229333272      7.1900700000000004
   168   1      13.411539239664625      22.863475229333272      3.0874199999999998
   169   1      10.856960214931478       25.92897005901305      11.292730000000001
   170   1      10.856960214931478       25.92897005901305      7.1900700000000004
   171   1      10.856960214931478       25.92897005901305      3.0874199999999998
   172   1      13.155855992282628      11.112675471533457      22.492730000000002
   173   1      13.155855992282628      11.112675471533457      18.390070000000001
   174   1      13.155855992282628      11.112675471533457      14.287419999999999
   175   1      10.090313788957276      13.667196879670636      22.492730000000002
   176   1      16.221405877820775      8.5581604652402756      22.492730000000002
   177   1      11.622771840448518      27.972861184445847      14.287419999999999
   178   1      8.5572296371231662      30.527382592583024      22.492730000000002
   179   1      3.9592217000937753      18.776233294100994      18.390070000000001
   180   1      3.9592217000937753      18.776233294100994      14.287419999999999
   181   1      15.966118264397773      19.797980399653497      11.292730000000001
   182   1      15.966118264397773      19.797980399653497      7.1900700000000004
   183   1      15.966118264397773      19.797980399653497      3.0874199999999998
   184   1      10.090313788957276      13.667196879670636      18.390070000000001
   185   1      10.090313788957276      13.667196879670636      14.287419999999999
   186   1      7.0247639034191272      16.221711885963817      22.492730000000002
   187   1      7.0247639034191272      16.221711885963817      18.390070000000001
   188   1      17.498859277393663      5.4923455433606652      11.292730000000001
   189   1      17.498859277393663      5.4923455433606652      7.1900700000000004
   190   1      17.498859277393663      5.4923455433606652      3.0874199999999998
   191   1      23.373928821143345      23.374859649260458      22.492730000000002
   192   1      23.373928821143345      23.374859649260458      18.390070000000001
   193   1     0.89367181455562761      21.330748300394173      14.287419999999999
   194   1      31.038105061840955      1.4056375219177066      22.492730000000002
   195   1      31.038105061840955      1.4056375219177066      18.390070000000001
   196   1      31.038105061840955      1.4056375219177066      14.287419999999999
   197   1      3.9592217000937753      18.776233294100994      22.492730000000002
   198   1      12.389707629771365      11.623327520507424      11.292730000000001
   199   1      12.389707629771365      11.623327520507424      7.1900700000000004
   200   1      12.389707629771365      11.623327520507424      3.0874199999999998
   201   1      29.505020910006841      18.265823234830094      22.492730000000002
   202   1      29.505020910006841      18.265823234830094      18.390070000000001
   203   1      29.505020910006841      18.265823234830094      14.287419999999999
   204   1      26.439471024468698      20.820338241123281      22.492730000000002
   205   1      26.439471024468698      20.820338241123281      18.390070000000001
   206   1      26.439471024468698      20.820338241123281      14.287419999999999
   207   1      11.622771840448518      27.972861184445847      22.492730000000002
   208   1      11.622771840448518      27.972861184445847      18.390070000000001
   209   1      14.688321725986665      25.418346178152667      14.287419999999999
   210   1      21.841463087439308      9.0691889426412473      22.492730000000002
   211   1       23.62984893675322       10.60150359282696      11.292730000000001
   212   1       23.62984893675322       10.60150359282696      7.1900700000000004
   213   1       23.62984893675322       10.60150359282696      3.0874199999999998
   214   1      21.075269912020072      13.666998422506737      11.292730000000001
   215   1      21.075269912020072      13.666998422506737      7.1900700000000004
   216   1      21.075269912020072      13.666998422506737      3.0874199999999998
   217   1      27.972555176302809      3.9601525282108865      22.492730000000002
   218   1      27.972555176302809      3.9601525282108865      18.390070000000001
   219   1      27.972555176302809      3.9601525282108865      14.287419999999999
   220   1      18.520697289130922      16.732485569973718      11.292730000000001
   221   1      18.520697289130922      16.732485569973718      7.1900700000000004
   222   1      18.520697289130922      16.732485569973718      3.0874199999999998
   223   1     0.89367181455562761      21.330748300394173      22.492730000000002
   224   1     0.89367181455562761      21.330748300394173      18.390070000000001
   225   1      18.775920884113955      11.623710350778422      22.492730000000002
   226   1      18.775920884113955      11.623710350778422      18.390070000000001
   227   1      18.775920884113955      11.623710350778422      14.287419999999999
   228   1      26.184427961486367      7.5360087631471835      11.292730000000001
   229   1      26.184427961486367      7.5360087631471835      7.1900700000000004
   230   1      26.184427961486367      7.5360087631471835      3.0874199999999998
   231   1      24.907012972977459      6.5146739363480659      22.492730000000002
   232   1      24.907012972977459      6.5146739363480659      18.390070000000001
   233   1      24.907012972977459      6.5146739363480659      14.287419999999999
   234   1      8.5572296371231662      30.527382592583024      18.390070000000001
   235   1      8.5572296371231662      30.527382592583024      14.287419999999999
   236   1      9.8351286050382178        14.6888223501872      11.292730000000001
   237   1      9.8351286050382178        14.6888223501872      7.1900700000000004
   238   1      9.8351286050382178        14.6888223501872      3.0874199999999998
   239   1      14.688321725986665      25.418346178152667      22.492730000000002
   240   1      14.688321725986665      25.418346178152667      18.390070000000001
   241   1      28.739006986219515       4.470513933467406      7.1900700000000004
   242   1      28.739006986219515       4.470513933467406      3.0874199999999998
   243   1      15.710370998575812      14.178225357071605      22.492730000000002
   244   1      15.710370998575812      14.178225357071605      18.390070000000001
   245   1      15.710370998575812      14.178225357071605      14.287419999999999
   246   1      21.841463087439308      9.0691889426412473      18.390070000000001
   247   1      21.841463087439308      9.0691889426412473      14.287419999999999
   248   1      7.2805495803050704      17.754317179866977      11.292730000000001
   249   1      7.2805495803050704      17.754317179866977      7.1900700000000004
   250   1      7.2805495803050704      17.754317179866977      3.0874199999999998
   251   1      17.753863929312018      22.863824770015491      22.492730000000002
   252   1      17.753863929312018      22.863824770015491      18.390070000000001
   253   1      17.753863929312018      22.863824770015491      14.287419999999999
   254   1      4.7259705555719229      20.819812009546755      11.292730000000001
   255   1      4.7259705555719229      20.819812009546755      7.1900700000000004
   256   1      4.7259705555719229      20.819812009546755      3.0874199999999998
   257   1      26.950499501869668      15.200281031504749      22.492730000000002
   258   1      26.950499501869668      15.200281031504749      18.390070000000001
   259   1      26.950499501869668      15.200281031504749      14.287419999999999
   260   1      6.5137431082309547      21.841775497426344      18.390070000000001
   261   1      6.5137431082309547      21.841775497426344      14.287419999999999
   262   1      5.2368863605185538      26.439885863959681      11.292730000000001
   263   1      5.2368863605185538      26.439885863959681      7.1900700000000004
   264   1      5.2368863605185538      26.439885863959681      3.0874199999999998
   265   1       2.682307335785405      29.505380693639459      11.292730000000001
   266   1       2.682307335785405      29.505380693639459      7.1900700000000004
   267   1       2.682307335785405      29.505380693639459      3.0874199999999998
   268   1      12.644835197094453      16.732739082995987      22.492730000000002
   269   1      12.644835197094453      16.732739082995987      18.390070000000001
   270   1      12.644835197094453      16.732739082995987      14.287419999999999
   271   1      9.5792853115563084      19.287254089289171      22.492730000000002
   272   1      28.739006986219515       4.470513933467406      11.292730000000001
   273   1      7.7914653852516995      23.374391034279906      3.0874199999999998
   274   1      3.4481932226928049      24.396290503719523      22.492730000000002
   275   1      3.4481932226928049      24.396290503719523      18.390070000000001
   276   1      3.4481932226928049      24.396290503719523      14.287419999999999
   277   1      9.5792853115563084      19.287254089289171      18.390070000000001
   278   1      9.5792853115563084      19.287254089289171      14.287419999999999
   279   1      6.5137431082309547      21.841775497426344      22.492730000000002
   280   1      2.1713915308387768       23.88530683922653      11.292730000000001
   281   1      2.1713915308387768       23.88530683922653      7.1900700000000004
   282   1      2.1713915308387768       23.88530683922653      3.0874199999999998
   283   1      23.884949616331522      17.754796037797927      22.492730000000002
   284   1      23.884949616331522      17.754796037797927      18.390070000000001
   285   1      23.884949616331522      17.754796037797927      14.287419999999999
   286   1      20.819407413006168      20.309317445935104      22.492730000000002
   287   1      20.819407413006168      20.309317445935104      18.390070000000001
   288   1      20.819407413006168      20.309317445935104      14.287419999999999
   289   1      25.673512156539736      1.9159349087342605      11.292730000000001
   290   1      25.673512156539736      1.9159349087342605      7.1900700000000004
   291   1      25.673512156539736      1.9159349087342605      3.0874199999999998
   292   1      12.900623434717994      17.243401374920349      7.1900700000000004
   293   1      12.900623434717994      17.243401374920349      3.0874199999999998
   294   1      10.346044409984847      20.308896204600128      11.292730000000001
   295   1      10.346044409984847      20.308896204600128      7.1900700000000004
   296   1      10.346044409984847      20.308896204600128      3.0874199999999998
   297   1     0.38265101936745549      26.950811911856704      22.492730000000002
   298   1     0.38265101936745549      26.950811911856704      18.390070000000001
   299   1     0.38265101936745549      26.950811911856704      14.287419999999999
   300   1      30.527070182595992      7.0257024137490376      22.492730000000002
   301   1      30.527070182595992      7.0257024137490376      18.390070000000001
   302   1      30.527070182595992      7.0257024137490376      14.287419999999999
   303   1      7.7914653852516995      23.374391034279906      11.292730000000001
   304   1      7.7914653852516995      23.374391034279906      7.1900700000000004
   305   1      2.9371724275046334      30.016354115182057      18.390070000000001
   306   1      12.133800317849488      22.352803974827317      22.492730000000002
   307   1      12.133800317849488      22.352803974827317      18.390070000000001
   308   1      12.133800317849488      22.352803974827317      14.287419999999999
   309   1      12.900623434717994      17.243401374920349      11.292730000000001
   310   1      24.395984495576485      12.134731145966599      22.492730000000002
   311   1      24.395984495576485      12.134731145966599      18.390070000000001
   312   1      24.395984495576485      12.134731145966599      14.287419999999999
   313   1      21.330442292251139      14.689252554103776      22.492730000000002
   314   1      27.461526698901839      9.5802097378294206      22.492730000000002
   315   1      27.461526698901839      9.5802097378294206      18.390070000000001
   316   1      27.461526698901839      9.5802097378294206      14.287419999999999
   317   1      2.9371724275046334      30.016354115182057      14.287419999999999
   318   1      30.016041705195022      12.645759623367567      22.492730000000002
   319   1      30.016041705195022      12.645759623367567      18.390070000000001
   320   1      30.016041705195022      12.645759623367567      14.287419999999999
   321   1      18.009775082340294      11.112419397773591      3.0874199999999998
   322   1      21.330442292251139      14.689252554103776      18.390070000000001
   323   1      21.330442292251139      14.689252554103776      14.287419999999999
   324   1      18.264892406712988      17.243767560396957      22.492730000000002
   325   1      18.264892406712988      17.243767560396957      18.390070000000001
   326   1      18.264892406712988      17.243767560396957      14.287419999999999
   327   1      15.455202459451142      14.177906545240573      11.292730000000001
   328   1      15.455202459451142      14.177906545240573      7.1900700000000004
   329   1      15.455202459451142      14.177906545240573      3.0874199999999998
   330   1      23.118933131806589      4.9814297384140378      11.292730000000001
   331   1      9.0682581145241326      24.907325382964494      18.390070000000001
   332   1      9.0682581145241326      24.907325382964494      14.287419999999999
   333   1       6.002708228985985      27.461840389257674      22.492730000000002
   334   1       6.002708228985985      27.461840389257674      18.390070000000001
   335   1       6.002708228985985      27.461840389257674      14.287419999999999
   336   1      2.9371724275046334      30.016354115182057      22.492730000000002
   337   1      14.433364447713888      2.9377665186275199      7.1900700000000004
   338   1      14.433364447713888      2.9377665186275199      3.0874199999999998
   339   1     0.63864411599888748      7.0250852759877587      7.1900700000000004
   340   1     0.63864411599888748      7.0250852759877587      3.0874199999999998
   341   1      11.112369463390417      2.4270683763767753      18.390070000000001
   342   1      11.112369463390417      2.4270683763767753      14.287419999999999
   343   1      22.097107923757331      24.907138449119795      11.292730000000001
   344   1      22.097107923757331      24.907138449119795      7.1900700000000004
   345   1      22.097107923757331      24.907138449119795      3.0874199999999998
   346   1      19.542528899024184       27.97263327879957      11.292730000000001
   347   1      19.542528899024184       27.97263327879957      7.1900700000000004
   348   1      1.1495599209455174      12.645159130400685      11.292730000000001
   349   1      1.1495599209455174      12.645159130400685      7.1900700000000004
   350   1      1.1495599209455174      12.645159130400685      3.0874199999999998
   351   1       6.258717970411813      6.5141694710411304      11.292730000000001
   352   1       6.258717970411813      6.5141694710411304      7.1900700000000004
   353   1       27.71718177817025      24.396222644173161      11.292730000000001
   354   1      5.4923058519278873      1.9160475811886009      14.287419999999999
   355   1      5.4923058519278873      1.9160475811886009      18.390070000000001
   356   1      5.4923058519278873      1.9160475811886009      22.492730000000002
   357   1      3.7041389456786655       9.579664300720907      3.0874199999999998