(written by ASE)

6360 atoms
3 atom types

0.0      64.958665399559592  xlo xhi
0.0      64.958665399559592  ylo yhi
0.0                      50  zlo zhi

Masses

     1       137.3269999646734 # Ba
     2      15.998999995884349 # O
     3      47.866999987686484 # Ti

Atoms # atomic

     1   1      2.6350545327760102      4.3510455552885912      22.492730000000002
     2   1      64.529693278374523      55.092308113210365      3.0874199999999998
     3   1      64.529693278374523      55.092308113210365      7.1900700000000004
     4   1      64.529693278374523      55.092308113210365      11.292730000000001
     5   1      5.5766122283914363      1.6546935842793047      14.287419999999999
     6   1      5.5766122283914363      1.6546935842793047      18.390070000000001
     7   1      5.5766122283914363      1.6546935842793047      22.492730000000002
     8   1      17.710432294405642      17.587861989743764      3.0874199999999998
     9   1      23.103221623445453        11.7048190853367      3.0874199999999998
    10   1      23.103221623445453        11.7048190853367      7.1900700000000004
    11   1      23.103221623445453        11.7048190853367      11.292730000000001
    12   1      17.710432294405642      17.587861989743764      7.1900700000000004
    13   1      17.710432294405642      17.587861989743764      11.292730000000001
    14   1      20.406823580302408      14.646344223310933      3.0874199999999998
    15   1      64.161718217488655      18.324245189572881      22.492730000000002
    16   1      40.507237984918277      22.245277405831416      3.0874199999999998
    17   1       28.49601770973155      5.8217688093882298      3.0874199999999998
    18   1      56.195378811360477      58.278952974474386      11.292730000000001
    19   1      8.2729648136958396      4.5962654086824193      14.287419999999999
    20   1      56.440505906191667      63.916876155591666      3.0874199999999998
    21   1      62.078421715767547      63.671742303514201      7.1900700000000004
    22   1      62.078421715767547      63.671742303514201      11.292730000000001
    23   1      64.774819758910596      60.730217165539962      3.0874199999999998
    24   1      64.774819758910596      60.730217165539962      7.1900700000000004
    25   1      64.774819758910596      60.730217165539962      11.292730000000001
    26   1      61.833301992477764      58.033825879643196      3.0874199999999998
    27   1      61.833301992477764      58.033825879643196      7.1900700000000004
    28   1      61.833301992477764      58.033825879643196      11.292730000000001
    29   1      20.406823580302408      14.646344223310933      7.1900700000000004
    30   1      20.406823580302408      14.646344223310933      11.292730000000001
    31   1      59.136903949334716      60.975351017617434      11.292730000000001
    32   1      2.6350545327760102      4.3510455552885912      18.390070000000001
    33   1       11.21452926655755      1.8999060661317302      14.287419999999999
    34   1       11.21452926655755      1.8999060661317302      18.390070000000001
    35   1       11.21452926655755      1.8999060661317302      22.492730000000002
    36   1      5.3313997465390104      7.2926106224454204      14.287419999999999
    37   1      5.3313997465390104      7.2926106224454204      18.390070000000001
    38   1      5.3313997465390104      7.2926106224454204      22.492730000000002
    39   1      15.014034251262595         20.529387127718      3.0874199999999998
    40   1      15.014034251262595         20.529387127718      7.1900700000000004
    41   1      15.014034251262595         20.529387127718      11.292730000000001
    42   1      9.6212381649764982       26.41243740366647      3.0874199999999998
    43   1      9.6212381649764982       26.41243740366647      7.1900700000000004
    44   1      9.6212381649764982       26.41243740366647      11.292730000000001
    45   1      12.317636208119547      23.470912265692235      3.0874199999999998
    46   1      12.317636208119547      23.470912265692235      7.1900700000000004
    47   1      12.317636208119547      23.470912265692235      11.292730000000001
    48   1      58.891776854503526      55.337427836500147      3.0874199999999998
    49   1      3.9833149838592199      26.657564498497656      11.292730000000001
    50   1      45.164659543957107      64.407130345254046      3.0874199999999998
    51   1      45.164659543957107      64.407130345254046      7.1900700000000004
    52   1      45.164659543957107      64.407130345254046      11.292730000000001
    53   1      47.861057587100156      61.465605207279822      3.0874199999999998
    54   1      2.3898279221358969      9.9889632077498227      14.287419999999999
    55   1      2.3898279221358969      9.9889632077498227      18.390070000000001
    56   1      2.3898279221358969      9.9889632077498227      22.492730000000002
    57   1      16.852453676265068       2.145125305230442      14.287419999999999
    58   1      16.852453676265068       2.145125305230442      18.390070000000001
    59   1      16.852453676265068       2.145125305230442      22.492730000000002
    60   1      61.588168140400285      52.395910070067316      3.0874199999999998
    61   1      61.588168140400285      52.395910070067316      7.1900700000000004
    62   1      61.588168140400285      52.395910070067316      11.292730000000001
    63   1      8.2729648136958396      4.5962654086824193      18.390070000000001
    64   1      8.2729648136958396      4.5962654086824193      22.492730000000002
    65   1      50.557455630243204      58.524080069305583      11.292730000000001
    66   1      64.284566183543333      49.454384932093085      3.0874199999999998
    67   1      64.284566183543333      49.454384932093085      7.1900700000000004
    68   1      64.284566183543333      49.454384932093085      11.292730000000001
    69   1      13.910881851861953      4.8414778905348443      14.287419999999999
    70   1      13.910881851861953      4.8414778905348443      18.390070000000001
    71   1      13.910881851861953      4.8414778905348443      22.492730000000002
    72   1       28.49601770973155      5.8217688093882298      7.1900700000000004
    73   1       28.49601770973155      5.8217688093882298      11.292730000000001
    74   1      6.6797130270022667      23.716039360523425      7.1900700000000004
    75   1      6.6797130270022667      23.716039360523425      11.292730000000001
    76   1      1.2869169407161702      29.599089636471891      3.0874199999999998
    77   1      1.2869169407161702      29.599089636471891      7.1900700000000004
    78   1      1.2869169407161702      29.599089636471891      11.292730000000001
    79   1      3.9833149838592199      26.657564498497656      3.0874199999999998
    80   1      3.9833149838592199      26.657564498497656      7.1900700000000004
    81   1      47.861057587100156      61.465605207279822      11.292730000000001
    82   1      8.0277523318434145      10.234182446848534      22.492730000000002
    83   1      10.969316784705125      7.5378231042978463      14.287419999999999
    84   1      10.969316784705125      7.5378231042978463      18.390070000000001
    85   1      10.969316784705125      7.5378231042978463      22.492730000000002
    86   1      6.9248401218334514      29.353962541640705      7.1900700000000004
    87   1      6.9248401218334514      29.353962541640705      11.292730000000001
    88   1      1.5320440355473548      35.237012817589175      11.292730000000001
    89   1      9.3761110701453152       20.77451422254919      3.0874199999999998
    90   1      9.3761110701453152       20.77451422254919      7.1900700000000004
    91   1      9.3761110701453152       20.77451422254919      11.292730000000001
    92   1       4.228442078690402      32.295487679614936      3.0874199999999998
    93   1       4.228442078690402      32.295487679614936      7.1900700000000004
    94   1       4.228442078690402      32.295487679614936      11.292730000000001
    95   1      50.557455630243204      58.524080069305583      3.0874199999999998
    96   1      50.557455630243204      58.524080069305583      7.1900700000000004
    97   1      14.768907156431412      14.891463946600719      7.1900700000000004
    98   1       58.64664300242606      49.699512026924282      3.0874199999999998
    99   1       58.64664300242606      49.699512026924282      7.1900700000000004
   100   1       58.64664300242606      49.699512026924282      11.292730000000001
   101   1      5.0861872646865844      12.930527660611533      14.287419999999999
   102   1      5.0861872646865844      12.930527660611533      18.390070000000001
   103   1      5.0861872646865844      12.930527660611533      22.492730000000002
   104   1      8.0277523318434145      10.234182446848534      14.287419999999999
   105   1      8.0277523318434145      10.234182446848534      18.390070000000001
   106   1      53.253853673386253      55.582554931331352      3.0874199999999998
   107   1      53.253853673386253      55.582554931331352      7.1900700000000004
   108   1      53.253853673386253      55.582554931331352      11.292730000000001
   109   1      55.950251716529301      52.641029793357113      3.0874199999999998
   110   1      55.950251716529301      52.641029793357113      7.1900700000000004
   111   1      2.1446154402834723      15.626880245915936      14.287419999999999
   112   1      47.861057587100156      61.465605207279822      7.1900700000000004
   113   1      16.607241194412641      7.7830423433965565      18.390070000000001
   114   1      16.607241194412641      7.7830423433965565      22.492730000000002
   115   1      2.1446154402834723      15.626880245915936      18.390070000000001
   116   1      2.1446154402834723      15.626880245915936      22.492730000000002
   117   1       22.49037071443118      2.3903377870828688      18.390070000000001
   118   1       22.49037071443118      2.3903377870828688      22.492730000000002
   119   1      55.950251716529301      52.641029793357113      11.292730000000001
   120   1      6.9248401218334514      29.353962541640705      3.0874199999999998
   121   1      6.6797130270022667      23.716039360523425      3.0874199999999998
   122   1      17.465298442328177      11.949946180167887      3.0874199999999998
   123   1      17.465298442328177      11.949946180167887      7.1900700000000004
   124   1      17.465298442328177      11.949946180167887      11.292730000000001
   125   1      12.072509113288364      17.832989084574955      3.0874199999999998
   126   1      12.072509113288364      17.832989084574955      7.1900700000000004
   127   1      12.072509113288364      17.832989084574955      11.292730000000001
   128   1      14.768907156431412      14.891463946600719      3.0874199999999998
   129   1       19.54879889002807      5.0866903723872703      22.492730000000002
   130   1       22.49037071443118      2.3903377870828688      14.287419999999999
   131   1      61.343041045569109       46.75798688895005      3.0874199999999998
   132   1      61.343041045569109       46.75798688895005      7.1900700000000004
   133   1      61.343041045569109       46.75798688895005      11.292730000000001
   134   1      14.768907156431412      14.891463946600719      11.292730000000001
   135   1      1.5320440355473548      35.237012817589175      3.0874199999999998
   136   1      1.5320440355473548      35.237012817589175      7.1900700000000004
   137   1      34.133940890848841      5.5766417145570442      11.292730000000001
   138   1      20.161696485471222      9.0084210421936532      3.0874199999999998
   139   1      20.161696485471222      9.0084210421936532      7.1900700000000004
   140   1      20.161696485471222      9.0084210421936532      11.292730000000001
   141   1      36.830338933991889      2.6351165765828077      3.0874199999999998
   142   1      36.830338933991889      2.6351165765828077      7.1900700000000004
   143   1      36.830338933991889      2.6351165765828077      11.292730000000001
   144   1      16.607241194412641      7.7830423433965565      14.287419999999999
   145   1       22.85809452861427      6.0668959042194182      7.1900700000000004
   146   1       22.85809452861427      6.0668959042194182      11.292730000000001
   147   1      25.554492571757319      3.1253707662451831      3.0874199999999998
   148   1      25.554492571757319      3.1253707662451831      7.1900700000000004
   149   1      44.919532449125917      58.769207164136766      3.0874199999999998
   150   1      44.919532449125917      58.769207164136766      7.1900700000000004
   151   1      10.724097545606414       13.17574751400536      18.390070000000001
   152   1      10.724097545606414       13.17574751400536      22.492730000000002
   153   1      13.665669370009528      10.479394928700961      14.287419999999999
   154   1      13.665669370009528      10.479394928700961      18.390070000000001
   155   1      13.665669370009528      10.479394928700961      22.492730000000002
   156   1      64.039439088712157      43.816461750975812      3.0874199999999998
   157   1      64.039439088712157      43.816461750975812      7.1900700000000004
   158   1      64.039439088712157      43.816461750975812      11.292730000000001
   159   1       19.54879889002807      5.0866903723872703      14.287419999999999
   160   1       19.54879889002807      5.0866903723872703      18.390070000000001
   161   1      31.437542847705789      8.5181668525312784      7.1900700000000004
   162   1      1.8994029584310461       21.26479728408205      14.287419999999999
   163   1       39.52673636283982      64.652257440085236      3.0874199999999998
   164   1       39.52673636283982      64.652257440085236      7.1900700000000004
   165   1       39.52673636283982      64.652257440085236      11.292730000000001
   166   1      42.223134405982869      61.710732302110998      3.0874199999999998
   167   1      7.7825398499909868      15.872099485014646      14.287419999999999
   168   1      7.7825398499909868      15.872099485014646      18.390070000000001
   169   1      7.7825398499909868      15.872099485014646      22.492730000000002
   170   1      10.724097545606414       13.17574751400536      14.287419999999999
   171   1      42.223134405982869      61.710732302110998      7.1900700000000004
   172   1      42.223134405982869      61.710732302110998      11.292730000000001
   173   1      28.250890614900367     0.18384562827094844      3.0874199999999998
   174   1      28.250890614900367     0.18384562827094844      7.1900700000000004
   175   1      28.250890614900367     0.18384562827094844      11.292730000000001
   176   1       22.85809452861427      6.0668959042194182      3.0874199999999998
   177   1      53.008726578555063      49.944631750214057      3.0874199999999998
   178   1      44.919532449125917      58.769207164136766      11.292730000000001
   179   1      4.8409680255878742      18.568452070319051      14.287419999999999
   180   1      4.8409680255878742      18.568452070319051      18.390070000000001
   181   1      4.8409680255878742      18.568452070319051      22.492730000000002
   182   1      47.615930492268966      55.827682026162528      3.0874199999999998
   183   1      47.615930492268966      55.827682026162528      7.1900700000000004
   184   1      47.615930492268966      55.827682026162528      11.292730000000001
   185   1      25.554492571757319      3.1253707662451831      11.292730000000001
   186   1      34.133940890848841      5.5766417145570442      3.0874199999999998
   187   1      34.133940890848841      5.5766417145570442      7.1900700000000004
   188   1       28.74114480456274      11.459691990505513      11.292730000000001
   189   1      1.0417898458849828      23.961166455354608      3.0874199999999998
   190   1      1.0417898458849828      23.961166455354608      7.1900700000000004
   191   1      1.0417898458849828      23.961166455354608      11.292730000000001
   192   1      31.437542847705789      8.5181668525312784      3.0874199999999998
   193   1      1.8994029584310461       21.26479728408205      18.390070000000001
   194   1      1.8994029584310461       21.26479728408205      22.492730000000002
   195   1      28.128287752597295      2.6355502689352925      18.390070000000001
   196   1      28.128287752597295      2.6355502689352925      22.492730000000002
   197   1      50.312328535412014      52.886156888188296      3.0874199999999998
   198   1      50.312328535412014      52.886156888188296      7.1900700000000004
   199   1      31.437542847705789      8.5181668525312784      11.292730000000001
   200   1      23.348348718276647      17.342742266453982      11.292730000000001
   201   1      3.7381878890280298      21.019641317380373      3.0874199999999998
   202   1      3.7381878890280298      21.019641317380373      7.1900700000000004
   203   1      3.7381878890280298      21.019641317380373      11.292730000000001
   204   1      6.4345859321710783      18.078116179406138      3.0874199999999998
   205   1      26.044746761419692      14.401217128479749      3.0874199999999998
   206   1      26.044746761419692      14.401217128479749      7.1900700000000004
   207   1      26.044746761419692      14.401217128479749      11.292730000000001
   208   1      50.312328535412014      52.886156888188296      11.292730000000001
   209   1       22.24515147533247      8.0282621967903847      14.287419999999999
   210   1       22.24515147533247      8.0282621967903847      18.390070000000001
   211   1       22.24515147533247      8.0282621967903847      22.492730000000002
   212   1      53.008726578555063      49.944631750214057      7.1900700000000004
   213   1       28.74114480456274      11.459691990505513      3.0874199999999998
   214   1       28.74114480456274      11.459691990505513      7.1900700000000004
   215   1      11.827382018457175      12.195065903457669      3.0874199999999998
   216   1      11.827382018457175      12.195065903457669      7.1900700000000004
   217   1      11.827382018457175      12.195065903457669      11.292730000000001
   218   1      6.4345859321710783      18.078116179406138      7.1900700000000004
   219   1      6.4345859321710783      18.078116179406138      11.292730000000001
   220   1      9.1309839753141269      15.136591041431904      3.0874199999999998
   221   1      9.1309839753141269      15.136591041431904      7.1900700000000004
   222   1      9.1309839753141269      15.136591041431904      11.292730000000001
   223   1      53.008726578555063      49.944631750214057      11.292730000000001
   224   1      55.705117864451822      47.003113983781226      3.0874199999999998
   225   1      10.478885063753989      18.813664552171478      14.287419999999999
   226   1      10.478885063753989      18.813664552171478      18.390070000000001
   227   1      55.705117864451822      47.003113983781226      7.1900700000000004
   228   1      55.705117864451822      47.003113983781226      11.292730000000001
   229   1      16.362014583772527      13.420959995857787      18.390070000000001
   230   1      16.362014583772527      13.420959995857787      22.492730000000002
   231   1      19.303586408175644      10.724607410553388      14.287419999999999
   232   1      19.303586408175644      10.724607410553388      18.390070000000001
   233   1      19.303586408175644      10.724607410553388      22.492730000000002
   234   1       58.40151590759487      44.061588845806995      3.0874199999999998
   235   1       58.40151590759487      44.061588845806995      7.1900700000000004
   236   1       58.40151590759487      44.061588845806995      11.292730000000001
   237   1      25.186723299735586      5.3319096114859805      14.287419999999999
   238   1      25.186723299735586      5.3319096114859805      18.390070000000001
   239   1      25.186723299735586      5.3319096114859805      22.492730000000002
   240   1      28.128287752597295      2.6355502689352925      14.287419999999999
   241   1      13.420456888157101      16.117311966867074      22.492730000000002
   242   1      16.362014583772527      13.420959995857787      14.287419999999999
   243   1      61.097913950737919      41.120063707832756      3.0874199999999998
   244   1      61.097913950737919      41.120063707832756      7.1900700000000004
   245   1      61.097913950737919      41.120063707832756      11.292730000000001
   246   1      23.348348718276647      17.342742266453982      3.0874199999999998
   247   1      23.348348718276647      17.342742266453982      7.1900700000000004
   248   1      17.955559389236836      23.225785170861048      3.0874199999999998
   249   1      17.955559389236836      23.225785170861048      7.1900700000000004
   250   1      17.955559389236836      23.225785170861048      11.292730000000001
   251   1      14.523773304353938      9.2535481370248363      3.0874199999999998
   252   1      14.523773304353938      9.2535481370248363      7.1900700000000004
   253   1      14.523773304353938      9.2535481370248363      11.292730000000001
   254   1      17.220171347496986       6.312022999050602      3.0874199999999998
   255   1      20.651957432379881      20.284260032886813      3.0874199999999998
   256   1      63.794311993880967      38.178538569858524      3.0874199999999998
   257   1      19.916569390640035      3.3704978610763674      7.1900700000000004
   258   1      19.916569390640035      3.3704978610763674      11.292730000000001
   259   1      15.259161346093785      26.167310308835283      3.0874199999999998
   260   1      4.5957555437354491      24.206369108485166      14.287419999999999
   261   1      39.281609268008637      59.014334258967949      3.0874199999999998
   262   1      39.281609268008637      59.014334258967949      7.1900700000000004
   263   1      10.478885063753989      18.813664552171478      22.492730000000002
   264   1      4.5957555437354491      24.206369108485166      18.390070000000001
   265   1      4.5957555437354491      24.206369108485166      22.492730000000002
   266   1      7.5373199965971596      21.510009765934477      14.287419999999999
   267   1      7.5373199965971596      21.510009765934477      18.390070000000001
   268   1      7.5373199965971596      21.510009765934477      22.492730000000002
   269   1      63.794311993880967      38.178538569858524      7.1900700000000004
   270   1      63.794311993880967      38.178538569858524      11.292730000000001
   271   1      13.420456888157101      16.117311966867074      14.287419999999999
   272   1      13.420456888157101      16.117311966867074      18.390070000000001
   273   1      41.978007311151686      56.072809120993718      11.292730000000001
   274   1      33.766198033517121      2.8807701223291207      14.287419999999999
   275   1       33.88881318172254      64.897384534916412      3.0874199999999998
   276   1       33.88881318172254      64.897384534916412      7.1900700000000004
   277   1       33.88881318172254      64.897384534916412      11.292730000000001
   278   1      36.585211224865589      61.955859396942181      3.0874199999999998
   279   1      36.585211224865589      61.955859396942181      7.1900700000000004
   280   1      36.585211224865589      61.955859396942181      11.292730000000001
   281   1      1.6541904765786186      26.902714322248166      14.287419999999999
   282   1      1.6541904765786186      26.902714322248166      18.390070000000001
   283   1      1.6541904765786186      26.902714322248166      22.492730000000002
   284   1      20.651957432379881      20.284260032886813      7.1900700000000004
   285   1      20.651957432379881      20.284260032886813      11.292730000000001
   286   1      17.220171347496986       6.312022999050602      7.1900700000000004
   287   1      17.220171347496986       6.312022999050602      11.292730000000001
   288   1      19.916569390640035      3.3704978610763674      3.0874199999999998
   289   1      44.674405354294734      53.131283983019479      11.292730000000001
   290   1      47.370803397437783      50.189758845045247      3.0874199999999998
   291   1      39.281609268008637      59.014334258967949      11.292730000000001
   292   1       36.70776985792024     0.18441753702472227      14.287419999999999
   293   1       36.70776985792024     0.18441753702472227      18.390070000000001
   294   1       36.70776985792024     0.18441753702472227      22.492730000000002
   295   1      41.978007311151686      56.072809120993718      3.0874199999999998
   296   1      41.978007311151686      56.072809120993718      7.1900700000000004
   297   1      15.259161346093785      26.167310308835283      7.1900700000000004
   298   1      15.259161346093785      26.167310308835283      11.292730000000001
   299   1     0.79666275105379658      18.323243274237328      3.0874199999999998
   300   1     0.79666275105379658      18.323243274237328      7.1900700000000004
   301   1     0.79666275105379658      18.323243274237328      11.292730000000001
   302   1      12.562763302950737      29.108835446809518      3.0874199999999998
   303   1      12.562763302950737      29.108835446809518      7.1900700000000004
   304   1      12.562763302950737      29.108835446809518      11.292730000000001
   305   1      30.824640337901702      5.5771220933384047      14.287419999999999
   306   1      30.824640337901702      5.5771220933384047      18.390070000000001
   307   1      30.824640337901702      5.5771220933384047      22.492730000000002
   308   1      44.674405354294734      53.131283983019479      3.0874199999999998
   309   1      44.674405354294734      53.131283983019479      7.1900700000000004
   310   1      22.612967433783083     0.42897272310213275      3.0874199999999998
   311   1      22.612967433783083     0.42897272310213275      7.1900700000000004
   312   1      22.612967433783083     0.42897272310213275      11.292730000000001
   313   1      7.1699672166646407      34.991885722757985      3.0874199999999998
   314   1      7.1699672166646407      34.991885722757985      7.1900700000000004
   315   1      7.1699672166646407      34.991885722757985      11.292730000000001
   316   1       3.493060794196845      15.381718136263093      3.0874199999999998
   317   1       3.493060794196845      15.381718136263093      7.1900700000000004
   318   1       3.493060794196845      15.381718136263093      11.292730000000001
   319   1      6.1894588373398935      12.440192998288857      3.0874199999999998
   320   1      6.1894588373398935      12.440192998288857      7.1900700000000004
   321   1       52.76359272647759      44.306715940638178      3.0874199999999998
   322   1       52.76359272647759      44.306715940638178      7.1900700000000004
   323   1       52.76359272647759      44.306715940638178      11.292730000000001
   324   1      47.370803397437783      50.189758845045247      7.1900700000000004
   325   1      47.370803397437783      50.189758845045247      11.292730000000001
   326   1      24.941503446341756      10.969819892405811      14.287419999999999
   327   1      24.941503446341756      10.969819892405811      18.390070000000001
   328   1      24.941503446341756      10.969819892405811      22.492730000000002
   329   1      27.883068513498586      8.2734746786428115      14.287419999999999
   330   1      27.883068513498586      8.2734746786428115      18.390070000000001
   331   1      27.883068513498586      8.2734746786428115      22.492730000000002
   332   1      50.067201440580831      47.248233707071009      3.0874199999999998
   333   1      50.067201440580831      47.248233707071009      7.1900700000000004
   334   1      50.067201440580831      47.248233707071009      11.292730000000001
   335   1      33.766198033517121      2.8807701223291207      18.390070000000001
   336   1      33.766198033517121      2.8807701223291207      22.492730000000002
   337   1      55.459990769620639      41.365190802663946      11.292730000000001
   338   1      21.999938993480047      13.666179234956498      14.287419999999999
   339   1      21.999938993480047      13.666179234956498      18.390070000000001
   340   1      21.999938993480047      13.666179234956498      22.492730000000002
   341   1      19.058373926323213      16.362524448719498      14.287419999999999
   342   1      19.058373926323213      16.362524448719498      18.390070000000001
   343   1      19.058373926323213      16.362524448719498      22.492730000000002
   344   1      9.8663652598076901      32.050360584783753      3.0874199999999998
   345   1      9.8663652598076901      32.050360584783753      7.1900700000000004
   346   1      9.8663652598076901      32.050360584783753      11.292730000000001
   347   1      11.582248166379705      6.5571500938817895      11.292730000000001
   348   1      6.1894588373398935      12.440192998288857      11.292730000000001
   349   1      8.8858568804829421      9.4986678603146224      3.0874199999999998
   350   1      8.8858568804829421      9.4986678603146224      7.1900700000000004
   351   1      8.8858568804829421      9.4986678603146224      11.292730000000001
   352   1       4.473569173521593      37.933410860732224      3.0874199999999998
   353   1      16.116802101920104      19.058877034023901      14.287419999999999
   354   1      16.116802101920104      19.058877034023901      18.390070000000001
   355   1      16.116802101920104      19.058877034023901      22.492730000000002
   356   1      55.459990769620639      41.365190802663946      3.0874199999999998
   357   1       4.473569173521593      37.933410860732224      7.1900700000000004