(written by ASE)

1272 atoms
3 atom types

0.0      29.050398312215759  xlo xhi
0.0      29.050398312215759  ylo yhi
0.0                      50  zlo zhi

Masses

     1       137.3269999646734 # Ba
     2      15.998999995884349 # O
     3      47.866999987686484 # Ti

Atoms # atomic

     1   1      6.4404137730170667      11.647564568339259      11.292730000000001
     2   1      6.4404137730170667      11.647564568339259      7.1900700000000004
     3   1      6.4404137730170667      11.647564568339259      3.0874199999999998
     4   1      2.6035774580695552      12.743803515467119      11.292730000000001
     5   1      2.6035774580695552      12.743803515467119      7.1900700000000004
     6   1      2.6035774580695552      12.743803515467119      3.0874199999999998
     7   1      19.047193257917169      12.195685415508827      11.292730000000001
     8   1      19.047193257917169      12.195685415508827      7.1900700000000004
     9   1      19.047193257917169      12.195685415508827      3.0874199999999998
    10   1      15.210347327730181      13.291927109847965      11.292730000000001
    11   1      10.277259703204054      10.551322874000119      11.292730000000001
    12   1      10.277259703204054      10.551322874000119      7.1900700000000004
    13   1      10.277259703204054      10.551322874000119      3.0874199999999998
    14   1      14.114105633391043      9.4550811796609793      11.292730000000001
    15   1      14.114105633391043      9.4550811796609793      7.1900700000000004
    16   1      14.114105633391043      9.4550811796609793      3.0874199999999998
    17   1      26.720942809728005      4.5216268024291058      18.390070000000001
    18   1      26.720942809728005      4.5216268024291058      14.287419999999999
    19   1       22.88408863790718      3.4254345578929892      22.492730000000002
    20   1      14.662226480560612      25.898706594748074      11.292730000000001
    21   1      14.662226480560612      25.898706594748074      7.1900700000000004
    22   1      14.662226480560612      25.898706594748074      3.0874199999999998
    23   1      10.825380550373625      26.994948289087212      11.292730000000001
    24   1      10.825380550373625      26.994948289087212      7.1900700000000004
    25   1      10.825380550373625      26.994948289087212      3.0874199999999998
    26   1      6.9885442354261134       28.09118723621507      11.292730000000001
    27   1      23.432160035273728      27.543069136256783      11.292730000000001
    28   1      23.432160035273728      27.543069136256783      7.1900700000000004
    29   1      23.432160035273728      27.543069136256783      3.0874199999999998
    30   1      19.595314105086739      28.639310830595921      11.292730000000001
    31   1      19.595314105086739      28.639310830595921      7.1900700000000004
    32   1      26.720885118291147      10.003202026830547      3.0874199999999998
    33   1      10.277320141852192      3.9737367210069716      22.492730000000002
    34   1      10.277320141852192      3.9737367210069716      18.390070000000001
    35   1      10.277320141852192      3.9737367210069716      14.287419999999999
    36   1      26.172764271121576      22.609981511730652      7.1900700000000004
    37   1      26.172764271121576      22.609981511730652      3.0874199999999998
    38   1      22.335918340934587      23.706223206069794      11.292730000000001
    39   1      22.335918340934587      23.706223206069794      7.1900700000000004
    40   1      22.335918340934587      23.706223206069794      3.0874199999999998
    41   1      17.951035353522041      6.1661088476284531      22.492730000000002
    42   1      17.951035353522041      6.1661088476284531      18.390070000000001
    43   1      17.951035353522041      6.1661088476284531      14.287419999999999
    44   1       21.78789914058234      7.2622983449532903      22.492730000000002
    45   1       21.78789914058234      7.2622983449532903      18.390070000000001
    46   1       21.78789914058234      7.2622983449532903      14.287419999999999
    47   1      25.624762927642639      8.3584878422781301      22.492730000000002
    48   1      25.624762927642639      8.3584878422781301      18.390070000000001
    49   1      28.365434470166825      13.291531511423793      22.492730000000002
    50   1      28.365434470166825      13.291531511423793      18.390070000000001
    51   1      28.365434470166825      13.291531511423793      14.287419999999999
    52   1      24.528570683106526      12.195342014098955      22.492730000000002
    53   1      24.528570683106526      12.195342014098955      18.390070000000001
    54   1      24.528570683106526      12.195342014098955      14.287419999999999
    55   1      2.6036021829710658      1.7813549791460157      22.492730000000002
    56   1      2.6036021829710658      1.7813549791460157      18.390070000000001
    57   1      2.6036021829710658      1.7813549791460157      14.287419999999999
    58   1      26.172764271121576      22.609981511730652      11.292730000000001
    59   1      6.4404563547918903      2.8775472236821331      22.492730000000002
    60   1      6.4404563547918903      2.8775472236821331      18.390070000000001
    61   1      6.4404563547918903      2.8775472236821331      14.287419999999999
    62   1      14.114181181701214      5.0699166030923344      22.492730000000002
    63   1      14.114181181701214      5.0699166030923344      18.390070000000001
    64   1      14.114181181701214      5.0699166030923344      14.287419999999999
    65   1      13.017991684376376       8.906780390152635      14.287419999999999
    66   1      9.1811278973160739      7.8105908928277978      22.492730000000002
    67   1      9.1811278973160739      7.8105908928277978      18.390070000000001
    68   1      9.1811278973160739      7.8105908928277978      14.287419999999999
    69   1      5.8923025410869734      24.254341306028078      11.292730000000001
    70   1      5.8923025410869734      24.254341306028078      7.1900700000000004
    71   1      5.8923025410869734      24.254341306028078      3.0874199999999998
    72   1      2.0554566108999852      25.350583000367219      11.292730000000001
    73   1      2.0554566108999852      25.350583000367219      7.1900700000000004
    74   1      2.0554566108999852      25.350583000367219      3.0874199999999998
    75   1      16.854855471436679      10.002969887477475      22.492730000000002
    76   1      16.854855471436679      10.002969887477475      18.390070000000001
    77   1      16.854855471436679      10.002969887477475      14.287419999999999
    78   1        20.6917096432575      11.099162132013594      22.492730000000002
    79   1        20.6917096432575      11.099162132013594      18.390070000000001
    80   1        20.6917096432575      11.099162132013594      14.287419999999999
    81   1      27.269244972841989      17.128395298484094      14.287419999999999
    82   1      23.432381185781686      16.032205801159257      22.492730000000002
    83   1      23.432381185781686      16.032205801159257      18.390070000000001
    84   1      23.432381185781686      16.032205801159257      14.287419999999999
    85   1      1.5074126856462267      5.6182187662063168      14.287419999999999
    86   1      27.269244972841989      17.128395298484094      22.492730000000002
    87   1      9.7291388560344849      23.158102358900219      11.292730000000001
    88   1      9.7291388560344849      23.158102358900219      7.1900700000000004
    89   1      9.7291388560344849      23.158102358900219      3.0874199999999998
    90   1      5.3442668574670513      6.7144110107424346      22.492730000000002
    91   1      5.3442668574670513      6.7144110107424346      18.390070000000001
    92   1      5.3442668574670513      6.7144110107424346      14.287419999999999
    93   1      1.5074126856462267      5.6182187662063168      22.492730000000002
    94   1      1.5074126856462267      5.6182187662063168      18.390070000000001
    95   1      13.017991684376376       8.906780390152635      22.492730000000002
    96   1      13.017991684376376       8.906780390152635      18.390070000000001
    97   1      11.921802187051536      12.743644177212936      18.390070000000001
    98   1      11.921802187051536      12.743644177212936      14.287419999999999
    99   1      8.0849383999912359      11.647454679888099      22.492730000000002
   100   1      8.0849383999912359      11.647454679888099      18.390070000000001
   101   1      8.0849383999912359      11.647454679888099      14.287419999999999
   102   1      13.565984786221472      22.061860664561081      11.292730000000001
   103   1      13.565984786221472      22.061860664561081      7.1900700000000004
   104   1      13.565984786221472      22.061860664561081      3.0874199999999998
   105   1      15.758665974111837      13.839833674537774      22.492730000000002
   106   1      15.758665974111837      13.839833674537774      18.390070000000001
   107   1      15.758665974111837      13.839833674537774      14.287419999999999
   108   1      11.921802187051536      12.743644177212936      22.492730000000002
   109   1      19.595517398721384      14.936016303834418      22.492730000000002
   110   1      19.595517398721384      14.936016303834418      18.390070000000001
   111   1      19.595517398721384      14.936016303834418      14.287419999999999
   112   1      27.269244972841989      17.128395298484094      18.390070000000001
   113   1      22.336191688456847      19.869069588219556      14.287419999999999
   114   1      26.173055475517149        20.9652590855444      22.492730000000002
   115   1      26.173055475517149        20.9652590855444      18.390070000000001
   116   1      26.173055475517149        20.9652590855444      14.287419999999999
   117   1      21.239676646595449      19.869377275882801      11.292730000000001
   118   1      21.239676646595449      19.869377275882801      7.1900700000000004
   119   1      21.239676646595449      19.869377275882801      3.0874199999999998
   120   1      17.402830716408459      20.965618970221939      11.292730000000001
   121   1      17.402830716408459      20.965618970221939      7.1900700000000004
   122   1      17.402830716408459      20.965618970221939      3.0874199999999998
   123   1      4.2480842281704101       10.55126243535198      22.492730000000002
   124   1      4.2480842281704101       10.55126243535198      18.390070000000001
   125   1      4.2480842281704101       10.55126243535198      14.287419999999999
   126   1     0.41122044111010919      9.4550729380271417      22.492730000000002
   127   1     0.41122044111010919      9.4550729380271417      18.390070000000001
   128   1     0.41122044111010919      9.4550729380271417      14.287419999999999
   129   1      6.9887585179058727      15.484315719737118      18.390070000000001
   130   1      6.9887585179058727      15.484315719737118      14.287419999999999
   131   1      25.076522576782438      18.773135581543659      11.292730000000001
   132   1      25.076522576782438      18.773135581543659      7.1900700000000004
   133   1      25.076522576782438      18.773135581543659      3.0874199999999998
   134   1      14.662473729575721      17.676687846358604      22.492730000000002
   135   1      14.662473729575721      17.676687846358604      18.390070000000001
   136   1      14.662473729575721      17.676687846358604      14.287419999999999
   137   1      10.825609942515419      16.580498349033761      22.492730000000002
   138   1      10.825609942515419      16.580498349033761      18.390070000000001
   139   1      10.825609942515419      16.580498349033761      14.287419999999999
   140   1      18.499337516636022      18.772877343683437      22.492730000000002
   141   1      18.499337516636022      18.772877343683437      18.390070000000001
   142   1      18.499337516636022      18.772877343683437      14.287419999999999
   143   1      22.336191688456847      19.869069588219556      22.492730000000002
   144   1      22.336191688456847      19.869069588219556      18.390070000000001
   145   1      21.240002191132007      23.705933375279859      18.390070000000001
   146   1      21.240002191132007      23.705933375279859      14.287419999999999
   147   1     0.95921491656084623      21.513737070180234      3.0874199999999998
   148   1      28.913368506969427      17.676893887204521      11.292730000000001
   149   1      28.913368506969427      17.676893887204521      7.1900700000000004
   150   1      28.913368506969427      17.676893887204521      3.0874199999999998
   151   1      28.913727018041332      25.898302754690061      22.492730000000002
   152   1      28.913727018041332      25.898302754690061      18.390070000000001
   153   1      28.913727018041332      25.898302754690061      14.287419999999999
   154   1      25.076863230981029      24.802113257365221      22.492730000000002
   155   1      25.076863230981029      24.802113257365221      18.390070000000001
   156   1      25.076863230981029      24.802113257365221      14.287419999999999
   157   1      3.1518947308455716      14.388126222412282      22.492730000000002
   158   1      3.1518947308455716      14.388126222412282      18.390070000000001
   159   1      3.1518947308455716      14.388126222412282      14.287419999999999
   160   1      6.9887585179058727      15.484315719737118      22.492730000000002
   161   1      5.8925662733697548      19.321169891557947      14.287419999999999
   162   1      4.7960608467478343      20.417495375841092      11.292730000000001
   163   1      4.7960608467478343      20.417495375841092      7.1900700000000004
   164   1      4.7960608467478343      20.417495375841092      3.0874199999999998
   165   1     0.95921491656084623      21.513737070180234      11.292730000000001
   166   1     0.95921491656084623      21.513737070180234      7.1900700000000004
   167   1      13.566284232250881      21.513551633418903      22.492730000000002
   168   1      13.566284232250881      21.513551633418903      18.390070000000001
   169   1      13.566284232250881      21.513551633418903      14.287419999999999
   170   1      9.7294204451905788      20.417362136094059      22.492730000000002
   171   1      9.7294204451905788      20.417362136094059      18.390070000000001
   172   1      9.7294204451905788      20.417362136094059      14.287419999999999
   173   1      17.403148019311182      22.609741130743739      22.492730000000002
   174   1      17.403148019311182      22.609741130743739      18.390070000000001
   175   1      17.403148019311182      22.609741130743739      14.287419999999999
   176   1      21.240002191132007      23.705933375279859      22.492730000000002
   177   1      16.306955774775066      26.446595302564564      14.287419999999999
   178   1      12.469743091882334      18.225014734374096      11.292730000000001
   179   1      12.469743091882334      18.225014734374096      7.1900700000000004
   180   1      12.469743091882334      18.225014734374096      3.0874199999999998
   181   1      8.6328971616953449      19.321256428713234      11.292730000000001
   182   1      8.6328971616953449      19.321256428713234      7.1900700000000004
   183   1      8.6328971616953449      19.321256428713234      3.0874199999999998
   184   1      2.0557052335207322      18.224990009472585      22.492730000000002
   185   1      2.0557052335207322      18.224990009472585      18.390070000000001
   186   1      2.0557052335207322      18.224990009472585      14.287419999999999
   187   1      23.980673733656189      28.638977044425523      22.492730000000002
   188   1      23.980673733656189      28.638977044425523      18.390070000000001
   189   1      23.980673733656189      28.638977044425523      14.287419999999999
   190   1      20.143819561835365      27.542784799889404      22.492730000000002
   191   1      5.8925662733697548      19.321169891557947      22.492730000000002
   192   1      5.8925662733697548      19.321169891557947      18.390070000000001
   193   1      7.5370510657803784      28.091086963003384      18.390070000000001
   194   1      7.5370510657803784      28.091086963003384      14.287419999999999
   195   1      8.6332405631052183      24.254223175943086      22.492730000000002
   196   1      8.6332405631052183      24.254223175943086      18.390070000000001
   197   1      8.6332405631052183      24.254223175943086      14.287419999999999
   198   1      4.7963767760449159      23.158033678618246      22.492730000000002
   199   1      16.306589022069321      17.128773040034954      11.292730000000001
   200   1      16.306589022069321      17.128773040034954      7.1900700000000004
   201   1      16.306589022069321      17.128773040034954      3.0874199999999998
   202   1      12.470094734926043      25.350415420479205      22.492730000000002
   203   1      12.470094734926043      25.350415420479205      18.390070000000001
   204   1      12.470094734926043      25.350415420479205      14.287419999999999
   205   1      20.143819561835365      27.542784799889404      18.390070000000001
   206   1      20.143819561835365      27.542784799889404      14.287419999999999
   207   1      16.306955774775066      26.446595302564564      22.492730000000002
   208   1      16.306955774775066      26.446595302564564      18.390070000000001
   209   1      15.758468174899752     0.68514762494786308      3.0874199999999998
   210   1      3.1516886899996481     0.13702677777829353      7.1900700000000004
   211   1      3.1516886899996481     0.13702677777829353      3.0874199999999998
   212   1      3.1516886899996481     0.13702677777829353      11.292730000000001
   213   1      3.7001872787200778      26.994897465678552      22.492730000000002
   214   1      3.7001872787200778      26.994897465678552      18.390070000000001
   215   1      3.7001872787200778      26.994897465678552      14.287419999999999
   216   1       20.14343495225631      16.032531345695816      11.292730000000001
   217   1       20.14343495225631      16.032531345695816      7.1900700000000004
   218   1       20.14343495225631      16.032531345695816      3.0874199999999998
   219   1      4.7963767760449159      23.158033678618246      18.390070000000001
   220   1      4.7963767760449159      23.158033678618246      14.287419999999999
   221   1     0.95951298898461523      22.061844181293409      22.492730000000002
   222   1     0.95951298898461523      22.061844181293409      18.390070000000001
   223   1     0.95951298898461523      22.061844181293409      14.287419999999999
   224   1      7.5370510657803784      28.091086963003384      22.492730000000002
   225   1     0.41109406939127613      5.0701116550931422      3.0874199999999998
   226   1      27.817126812630288      13.840047957017536      11.292730000000001
   227   1      27.817126812630288      13.840047957017536      7.1900700000000004
   228   1      27.817126812630288      13.840047957017536      3.0874199999999998
   229   1      23.980280882443296      14.936289651356676      11.292730000000001
   230   1      23.980280882443296      14.936289651356676      7.1900700000000004
   231   1      23.980280882443296      14.936289651356676      3.0874199999999998
   232   1      8.0847763145257758       2.877631013626142      11.292730000000001
   233   1      8.0847763145257758       2.877631013626142      7.1900700000000004
   234   1      8.0847763145257758       2.877631013626142      3.0874199999999998
   235   1      4.2479303843387877      3.9738727079652816      11.292730000000001
   236   1      11.921622244712763      1.7813893192870025      11.292730000000001
   237   1      11.921622244712763      1.7813893192870025      7.1900700000000004
   238   1      11.921622244712763      1.7813893192870025      3.0874199999999998
   239   1      15.758468174899752     0.68514762494786308      11.292730000000001
   240   1      15.758468174899752     0.68514762494786308      7.1900700000000004
   241   1      20.691555799425878      3.4257518607957116      11.292730000000001
   242   1      20.691555799425878      3.4257518607957116      7.1900700000000004
   243   1      20.691555799425878      3.4257518607957116      3.0874199999999998
   244   1      3.6998191524086939      16.580649445654103      11.292730000000001
   245   1      3.6998191524086939      16.580649445654103      7.1900700000000004
   246   1      3.6998191524086939      16.580649445654103      3.0874199999999998
   247   1      28.365247659799856      1.2332684721174327      11.292730000000001
   248   1      28.365247659799856      1.2332684721174327      7.1900700000000004
   249   1      28.365247659799856      1.2332684721174327      3.0874199999999998
   250   1       24.52840172961287      2.3295101664565716      11.292730000000001
   251   1       24.52840172961287      2.3295101664565716      7.1900700000000004
   252   1       24.52840172961287      2.3295101664565716      3.0874199999999998
   253   1      4.2479303843387877      3.9738727079652816      7.1900700000000004
   254   1      4.2479303843387877      3.9738727079652816      3.0874199999999998
   255   1     0.41109406939127613      5.0701116550931422      11.292730000000001
   256   1     0.41109406939127613      5.0701116550931422      7.1900700000000004
   257   1      1.5073357637304159      8.9069575852801304      3.0874199999999998
   258   1      5.3441720786779277      7.8107186381522693      11.292730000000001
   259   1      5.3441720786779277      7.8107186381522693      7.1900700000000004
   260   1      5.3441720786779277      7.8107186381522693      3.0874199999999998
   261   1      7.5366554673562058      15.484410498526245      11.292730000000001
   262   1      7.5366554673562058      15.484410498526245      7.1900700000000004
   263   1      7.5366554673562058      15.484410498526245      3.0874199999999998
   264   1      13.017863939051903      5.6182352494739911      11.292730000000001
   265   1      13.017863939051903      5.6182352494739911      7.1900700000000004
   266   1      13.017863939051903      5.6182352494739911      3.0874199999999998
   267   1      9.1810180088649158      6.7144769438131302      11.292730000000001
   268   1      9.1810180088649158      6.7144769438131302      7.1900700000000004
   269   1      9.1810180088649158      6.7144769438131302      3.0874199999999998
   270   1      16.854709869238892      4.5219935551348511      11.292730000000001
   271   1      16.854709869238892      4.5219935551348511      7.1900700000000004
   272   1      16.854709869238892      4.5219935551348511      3.0874199999999998
   273   1      15.210347327730181      13.291927109847965      7.1900700000000004
   274   1      15.210347327730181      13.291927109847965      3.0874199999999998
   275   1      11.373501397543194      14.388168804187105      11.292730000000001
   276   1      11.373501397543194      14.388168804187105      7.1900700000000004
   277   1      11.373501397543194      14.388168804187105      3.0874199999999998
   278   1      21.787797493765019      7.2625977909827011      11.292730000000001
   279   1      21.787797493765019      7.2625977909827011      7.1900700000000004
   280   1      21.787797493765019      7.2625977909827011      3.0874199999999998
   281   1       17.95095156357803      8.3588394853218411      11.292730000000001
   282   1       17.95095156357803      8.3588394853218411      7.1900700000000004
   283   1       17.95095156357803      8.3588394853218411      3.0874199999999998
   284   1      25.624643423952008      6.1663560966435611      11.292730000000001
   285   1      25.624643423952008      6.1663560966435611      7.1900700000000004
   286   1      25.624643423952008      6.1663560966435611      3.0874199999999998
   287   1      1.5073357637304159      8.9069575852801304      11.292730000000001
   288   1      1.5073357637304159      8.9069575852801304      7.1900700000000004
   289   1      25.624762927642639      8.3584878422781301      14.287419999999999
   290   1      11.373509639177032     0.13687293394667049      22.492730000000002
   291   1      11.373509639177032     0.13687293394667049      18.390070000000001
   292   1      11.373509639177032     0.13687293394667049      14.287419999999999
   293   1      15.210363810997855      1.2330651784827893      22.492730000000002
   294   1      15.210363810997855      1.2330651784827893      18.390070000000001
   295   1      15.210363810997855      1.2330651784827893      14.287419999999999
   296   1      18.499072410747601      24.802464900408932      11.292730000000001
   297   1      18.499072410747601      24.802464900408932      7.1900700000000004
   298   1      18.499072410747601      24.802464900408932      3.0874199999999998
   299   1       22.88408863790718      3.4254345578929892      18.390070000000001
   300   1       22.88408863790718      3.4254345578929892      14.287419999999999
   301   1      19.047227598058157      2.3292546758076278      22.492730000000002
   302   1      19.047227598058157      2.3292546758076278      18.390070000000001
   303   1      19.047227598058157      2.3292546758076278      14.287419999999999
   304   1      26.720942809728005      4.5216268024291058      22.492730000000002
   305   1      26.720885118291147      10.003202026830547      7.1900700000000004
   306   1      26.720885118291147      10.003202026830547      11.292730000000001
   307   1      22.884039188104158      11.099443721169687      3.0874199999999998
   308   1      22.884039188104158      11.099443721169687      7.1900700000000004
   309   1      22.884039188104158      11.099443721169687      11.292730000000001
   310   1      27.269005965460718      26.446827441917641      3.0874199999999998
   311   1      27.269005965460718      26.446827441917641      7.1900700000000004
   312   1      27.269005965460718      26.446827441917641      11.292730000000001
   313   1      6.9885442354261134       28.09118723621507      3.0874199999999998
   314   1      6.9885442354261134       28.09118723621507      7.1900700000000004
   315   1      27.817132307052844     0.68476301536880579      14.287419999999999
   316   1      27.817132307052844     0.68476301536880579      18.390070000000001
   317   1      27.817132307052844     0.68476301536880579      22.492730000000002
   318   1      19.595314105086739      28.639310830595921      3.0874199999999998
   319   2      16.032528598484536      23.432162782485008      2.9496899999999999
   320   2      24.254628389606733      20.417162963276336      20.366240000000001
   321   2      23.706532267338677      22.335590049186752                  22.355
   322   2      27.543386439159502      23.431782293722865                14.14969
   323   2      28.091482561427561      21.513355207812456      16.263580000000001
   324   2      16.032807440429352      20.143220669776547                18.25235
   325   2      27.543386439159502      23.431782293722865                  22.355
   326   2      1.7815541519637415       11.92160576144509                14.14969
   327   2      3.6999908531136305       12.46969913650187      16.263580000000001
   328   2      2.3296475270205215      10.003169060295201      16.263580000000001
   329   2      1.7815541519637415       11.92160576144509                18.25235
   330   2      3.6999908531136305       12.46969913650187      20.366240000000001
   331   2      12.195682668297549      24.528404476824146      11.154999999999999
   332   2      25.624959353249089      22.883686171454809      20.366240000000001
   333   2       17.95095156357803      22.884041935315437                 5.06358
   334   2      15.484407751314967       21.51373981739151                 5.06358
   335   2      16.032528598484536      23.432162782485008      7.0523499999999997
   336   2       17.95095156357803      22.884041935315437      9.1662400000000002
   337   2      12.195682668297549      24.528404476824146      7.0523499999999997
   338   2      14.114105633391043      23.980283629654579      9.1662400000000002
   339   2      11.647561821127978      22.609981511730648      9.1662400000000002
   340   2      2.3296475270205215      10.003169060295201      20.366240000000001
   341   2      1.7815541519637415       11.92160576144509                  22.355
   342   2      5.6184151918127636      13.017785643530452                14.14969
   343   2      7.5368422777231769       13.56588176579851      16.263580000000001
   344   2      6.1665113140808225       11.09935855762004      16.263580000000001
   345   2      19.869668480278374      21.239400551861912                18.25235
   346   2      16.580900815486132       18.22478396862666      16.263580000000001
   347   2      8.3590894815482262      17.950838927915594                14.14969
   348   2      10.277516567458639       18.49893505018365      16.263580000000001
   349   2      8.9071856038162842      16.032411842005178      16.263580000000001
   350   2      8.3590894815482262      17.950838927915594                18.25235
   351   2      10.277516567458639       18.49893505018365      20.366240000000001
   352   2      17.951241394367962      20.691304429593853      20.366240000000001
   353   2      16.580900815486132       18.22478396862666      20.366240000000001
   354   2      16.032807440429352      20.143220669776547                  22.355
   355   2      19.869668480278374      21.239400551861912                14.14969
   356   2      21.788095566188787      21.787496674129969      16.263580000000001
   357   2      20.417764602546434        19.3209734659515      16.263580000000001