(written by ASE)

16536 atoms
3 atom types

0.0      104.74270068734646  xlo xhi
0.0      104.74270068734646  ylo yhi
0.0                      50  zlo zhi

Masses

     1       137.3269999646734 # Ba
     2      15.998999995884349 # O
     3      47.866999987686484 # Ti

Atoms # atomic

     1   1      25.349562999448775      33.330678486817177      11.292730000000001
     2   1      25.349562999448775      33.330678486817177      7.1900700000000004
     3   1      25.349562999448775      33.330678486817177      3.0874199999999998
     4   1      30.518289604610462      27.249823657215199      11.292730000000001
     5   1      30.518289604610462      27.249823657215199      7.1900700000000004
     6   1      30.518289604610462      27.249823657215199      3.0874199999999998
     7   1      2.4704198492458218      4.4465791873025546      18.390070000000001
     8   1      2.4704198492458218      4.4465791873025546      14.287419999999999
     9   1      5.5108023096270662      1.8621724541806004      22.492730000000002
    10   1      5.5108023096270662      1.8621724541806004      18.390070000000001
    11   1      5.5108023096270662      1.8621724541806004      14.287419999999999
    12   1      101.36022551129403      97.939741621885659      11.292730000000001
    13   1      101.36022551129403      97.939741621885659      7.1900700000000004
    14   1      101.36022551129403      97.939741621885659      3.0874199999999998
    15   1      44.581522836000026      78.632315505606897      14.287419999999999
    16   1      60.010421432302707      41.843876391168934      11.292730000000001
    17   1      93.151071491331351      101.43623314890678      11.292730000000001
    18   1      93.151071491331351      101.43623314890678      7.1900700000000004
    19   1      93.151071491331351      101.43623314890678      3.0874199999999998
    20   1      90.566708188750496      104.47666056370778      11.292730000000001
    21   1      90.566708188750496      104.47666056370778      7.1900700000000004
    22   1      90.566708188750496      104.47666056370778      3.0874199999999998
    23   1      103.94458881387487      94.899314207084657      11.292730000000001
    24   1      103.94458881387487      94.899314207084657      7.1900700000000004
    25   1      103.94458881387487      94.899314207084657      3.0874199999999998
    26   1      2.4704198492458218      4.4465791873025546      22.492730000000002
    27   1      104.40065292609502       100.5241049244665      11.292730000000001
    28   1      104.40065292609502       100.5241049244665      7.1900700000000004
    29   1      104.40065292609502       100.5241049244665      3.0874199999999998
    30   1      101.81628962351418      103.56453233926749      11.292730000000001
    31   1      101.81628962351418      103.56453233926749      7.1900700000000004
    32   1      96.191498906132352      104.02059645148763      3.0874199999999998
    33   1      5.0548342017609551      7.4869681241679995      22.492730000000002
    34   1      5.0548342017609551      7.4869681241679995      18.390070000000001
    35   1      5.0548342017609551      7.4869681241679995      14.287419999999999
    36   1      11.135597979614465      2.3181405620467106      22.492730000000002
    37   1      35.687009733287944      21.168976447006393      11.292730000000001
    38   1      35.687009733287944      21.168976447006393      7.1900700000000004
    39   1      35.687009733287944      21.168976447006393      3.0874199999999998
    40   1      20.180836394287091       39.41153331641916      11.292730000000001
    41   1      20.180836394287091       39.41153331641916      7.1900700000000004
    42   1      20.180836394287091       39.41153331641916      3.0874199999999998
    43   1      17.596473091706248      42.451960731220154      11.292730000000001
    44   1      17.596473091706248      42.451960731220154      7.1900700000000004
    45   1      17.596473091706248      42.451960731220154      3.0874199999999998
    46   1      40.855736338449631      15.088121617404409      11.292730000000001
    47   1      40.855736338449631      15.088121617404409      7.1900700000000004
    48   1      11.135597979614465      2.3181405620467106      18.390070000000001
    49   1      13.720012332129597       5.358529498912155      22.492730000000002
    50   1      19.800783729376285     0.18970841327507004      22.492730000000002
    51   1      19.800783729376285     0.18970841327507004      18.390070000000001
    52   1      19.800783729376285     0.18970841327507004      14.287419999999999
    53   1      103.48852470165471      89.274523489702815      11.292730000000001
    54   1      103.48852470165471      89.274523489702815      7.1900700000000004
    55   1      103.48852470165471      89.274523489702815      3.0874199999999998
    56   1      100.90416139907387      92.314950904503803      11.292730000000001
    57   1      100.90416139907387      92.314950904503803      7.1900700000000004
    58   1      100.90416139907387      92.314950904503803      3.0874199999999998
    59   1      2.0144452648955107      10.071382476683132      22.492730000000002
    60   1      2.0144452648955107      10.071382476683132      18.390070000000001
    61   1      2.0144452648955107      10.071382476683132      14.287419999999999
    62   1      98.319798096493031      95.355378319304805      11.292730000000001
    63   1      98.319798096493031      95.355378319304805      7.1900700000000004
    64   1      98.319798096493031      95.355378319304805      3.0874199999999998
    65   1      87.526280773949523      101.89229726112694      11.292730000000001
    66   1      87.526280773949523      101.89229726112694      7.1900700000000004
    67   1      87.526280773949523      101.89229726112694      3.0874199999999998
    68   1      16.760394792510841      2.7741227657902012      22.492730000000002
    69   1      16.760394792510841      2.7741227657902012      18.390070000000001
    70   1      16.760394792510841      2.7741227657902012      14.287419999999999
    71   1      40.855736338449631      15.088121617404409      3.0874199999999998
    72   1      38.271373035868791      18.128549032205402      11.292730000000001
    73   1      38.271373035868791      18.128549032205402      7.1900700000000004
    74   1      38.271373035868791      18.128549032205402      3.0874199999999998
    75   1      15.012109789125406      45.492388146021142      11.292730000000001
    76   1      15.012109789125406      45.492388146021142      7.1900700000000004
    77   1      15.012109789125406      45.492388146021142      3.0874199999999998
    78   1      43.440099641030471      12.047694202603418      11.292730000000001
    79   1      43.440099641030471      12.047694202603418      7.1900700000000004
    80   1      43.440099641030471      12.047694202603418      3.0874199999999998
    81   1      90.110644076530377       98.85186984632594      11.292730000000001
    82   1      90.110644076530377       98.85186984632594      7.1900700000000004
    83   1      90.110644076530377       98.85186984632594      3.0874199999999998
    84   1      13.720012332129597       5.358529498912155      18.390070000000001
    85   1      13.720012332129597       5.358529498912155      14.287419999999999
    86   1      10.679623395264151      7.9429438514272874      22.492730000000002
    87   1      46.024462943611319      9.0072667878024255      11.292730000000001
    88   1      46.024462943611319      9.0072667878024255      7.1900700000000004
    89   1      46.024462943611319      9.0072667878024255      3.0874199999999998
    90   1      12.427746486544562      48.532815560822137      11.292730000000001
    91   1      12.427746486544562      48.532815560822137      7.1900700000000004
    92   1      12.427746486544562      48.532815560822137      3.0874199999999998
    93   1      51.193189548772999       2.926411958200446      11.292730000000001
    94   1      51.193189548772999       2.926411958200446      7.1900700000000004
    95   1      10.679623395264151      7.9429438514272874      18.390070000000001
    96   1      10.679623395264151      7.9429438514272874      14.287419999999999
    97   1      4.5988519980174658      13.111764937064375      14.287419999999999
    98   1      1.5584771570293989      15.696178146670531      22.492730000000002
    99   1      51.193189548772999       2.926411958200446      3.0874199999999998
   100   1      48.608826246192159      5.9668393730014362      11.292730000000001
   101   1      48.608826246192159      5.9668393730014362      7.1900700000000004
   102   1      48.608826246192159      5.9668393730014362      3.0874199999999998
   103   1      9.8433831839637165      51.573242975623131      11.292730000000001
   104   1      9.8433831839637165      51.573242975623131      7.1900700000000004
   105   1      9.8433831839637165      51.573242975623131      3.0874199999999998
   106   1      7.2590198813828781      54.613670390424119      11.292730000000001
   107   1      7.2590198813828781      54.613670390424119      7.1900700000000004
   108   1      7.2590198813828781      54.613670390424119      3.0874199999999998
   109   1      7.6392409348829098      10.527350584549243      22.492730000000002
   110   1      7.6392409348829098      10.527350584549243      18.390070000000001
   111   1      7.6392409348829098      10.527350584549243      14.287419999999999
   112   1      92.695007379111217      95.811442431524952      3.0874199999999998
   113   1      6.8029557691627263      48.988879673042284      3.0874199999999998
   114   1       22.38519046249824      3.2300908736563105      22.492730000000002
   115   1       22.38519046249824      3.2300908736563105      18.390070000000001
   116   1       22.38519046249824      3.2300908736563105      14.287419999999999
   117   1      97.863733984272898      89.730587601922963      11.292730000000001
   118   1      97.863733984272898      89.730587601922963      7.1900700000000004
   119   1      97.863733984272898      89.730587601922963      3.0874199999999998
   120   1      1.5584771570293989      15.696178146670531      18.390070000000001
   121   1      1.5584771570293989      15.696178146670531      14.287419999999999
   122   1      95.279370681692058      92.771015016723965      11.292730000000001
   123   1      95.279370681692058      92.771015016723965      7.1900700000000004
   124   1      95.279370681692058      92.771015016723965      3.0874199999999998
   125   1      92.695007379111217      95.811442431524952      11.292730000000001
   126   1      92.695007379111217      95.811442431524952      7.1900700000000004
   127   1      4.5988519980174658      13.111764937064375      22.492730000000002
   128   1      4.5988519980174658      13.111764937064375      18.390070000000001
   129   1      19.344808002116999      5.8144976067782679      14.287419999999999
   130   1      103.03245411295039      83.649740391714161      3.0874199999999998
   131   1      100.44809728685374      86.690160187121975      11.292730000000001
   132   1      100.44809728685374      86.690160187121975      7.1900700000000004
   133   1      100.44809728685374      86.690160187121975      3.0874199999999998
   134   1      25.425579399363684     0.64567652114117935      22.492730000000002
   135   1      25.425579399363684     0.64567652114117935      18.390070000000001
   136   1      25.425579399363684     0.64567652114117935      14.287419999999999
   137   1      1.6342291640010427      55.069734502644266      11.292730000000001
   138   1      1.6342291640010427      55.069734502644266      7.1900700000000004
   139   1      1.6342291640010427      55.069734502644266      3.0874199999999998
   140   1      4.6746565788020336      57.654097805225113      11.292730000000001
   141   1      4.6746565788020336      57.654097805225113      7.1900700000000004
   142   1      4.6746565788020336      57.654097805225113      3.0874199999999998
   143   1      6.8029557691627263      48.988879673042284      11.292730000000001
   144   1      6.8029557691627263      48.988879673042284      7.1900700000000004
   145   1      103.03245411295039      83.649740391714161      11.292730000000001
   146   1      103.03245411295039      83.649740391714161      7.1900700000000004
   147   1      16.304426684644731      8.3989184357776008      22.492730000000002
   148   1      16.304426684644731      8.3989184357776008      18.390070000000001
   149   1      16.304426684644731      8.3989184357776008      14.287419999999999
   150   1       4.218592466581887      52.029307087843272      11.292730000000001
   151   1       4.218592466581887      52.029307087843272      7.1900700000000004
   152   1       4.218592466581887      52.029307087843272      3.0874199999999998
   153   1       2.090299752705393      60.694517600632921      11.292730000000001
   154   1       2.090299752705393      60.694517600632921      7.1900700000000004
   155   1       2.090299752705393      60.694517600632921      3.0874199999999998
   156   1      9.3873190717435708      45.948452258241296      11.292730000000001
   157   1      9.3873190717435708      45.948452258241296      7.1900700000000004
   158   1      9.3873190717435708      45.948452258241296      3.0874199999999998
   159   1      19.344808002116999      5.8144976067782679      22.492730000000002
   160   1      19.344808002116999      5.8144976067782679      18.390070000000001
   161   1      1.1024949532859081      21.320974959566907      18.390070000000001
   162   1      7.1832663505325973      16.152153873929819      22.492730000000002
   163   1      7.1832663505325973      16.152153873929819      18.390070000000001
   164   1      7.1832663505325973      16.152153873929819      14.287419999999999
   165   1      84.485860978541695      99.307940435030304      11.292730000000001
   166   1      84.485860978541695      99.307940435030304      7.1900700000000004
   167   1      84.485860978541695      99.307940435030304      3.0874199999999998
   168   1      13.264044224263486      10.983325168899555      22.492730000000002
   169   1      13.264044224263486      10.983325168899555      18.390070000000001
   170   1      13.264044224263486      10.983325168899555      14.287419999999999
   171   1      10.223655287398042      13.567739521414689      22.492730000000002
   172   1      10.223655287398042      13.567739521414689      18.390070000000001
   173   1      10.223655287398042      13.567739521414689      14.287419999999999
   174   1      81.901497675960854      102.34836784983129      11.292730000000001
   175   1      81.901497675960854      102.34836784983129      7.1900700000000004
   176   1      81.901497675960854      102.34836784983129      3.0874199999999998
   177   1      87.070224281122549      96.267513020229302      11.292730000000001
   178   1      87.070224281122549      96.267513020229302      7.1900700000000004
   179   1      87.070224281122549      96.267513020229302      3.0874199999999998
   180   1      4.1428838901513529      18.736560607051775      22.492730000000002
   181   1      4.1428838901513529      18.736560607051775      18.390070000000001
   182   1      4.1428838901513529      18.736560607051775      14.287419999999999
   183   1      1.1024949532859081      21.320974959566907      22.492730000000002
   184   1      11.971682374324415      42.908024843440302      11.292730000000001
   185   1      11.971682374324415      42.908024843440302      7.1900700000000004
   186   1      11.971682374324415      42.908024843440302      3.0874199999999998
   187   1      56.817972646761653      2.4703413694960972      11.292730000000001
   188   1      56.817972646761653      2.4703413694960972      7.1900700000000004
   189   1      56.817972646761653      2.4703413694960972      3.0874199999999998
   190   1        17.1404089794861       36.82717001383832      11.292730000000001
   191   1        17.1404089794861       36.82717001383832      7.1900700000000004
   192   1        17.1404089794861       36.82717001383832      3.0874199999999998
   193   1      92.238950886284229      90.186658190627327      11.292730000000001
   194   1      92.238950886284229      90.186658190627327      7.1900700000000004
   195   1      92.238950886284229      90.186658190627327      3.0874199999999998
   196   1      1.1024949532859081      21.320974959566907      14.287419999999999
   197   1      14.556045676905256      39.867597428639314      11.292730000000001
   198   1      14.556045676905256      39.867597428639314      7.1900700000000004
   199   1      14.556045676905256      39.867597428639314      3.0874199999999998
   200   1      54.233609344180813      5.5107687842970874      11.292730000000001
   201   1      54.233609344180813      5.5107687842970874      7.1900700000000004
   202   1      54.233609344180813      5.5107687842970874      3.0874199999999998
   203   1       19.72477228206694      33.786742599037332      11.292730000000001
   204   1       19.72477228206694      33.786742599037332      7.1900700000000004
   205   1       19.72477228206694      33.786742599037332      3.0874199999999998
   206   1      89.654587583703389      93.227085605428314      11.292730000000001
   207   1      89.654587583703389      93.227085605428314      7.1900700000000004
   208   1      89.654587583703389      93.227085605428314      3.0874199999999998
   209   1      94.823314188865069      87.146230775826325      3.0874199999999998
   210   1      31.050376212260062      1.1016587248846688      22.492730000000002
   211   1      31.050376212260062      1.1016587248846688      18.390070000000001
   212   1      31.050376212260062      1.1016587248846688      14.287419999999999
   213   1      22.309135584647784      30.746315184236337      11.292730000000001
   214   1      22.309135584647784      30.746315184236337      7.1900700000000004
   215   1      22.309135584647784      30.746315184236337      3.0874199999999998
   216   1      51.649246041599973      8.5511961990980776      11.292730000000001
   217   1      51.649246041599973      8.5511961990980776      7.1900700000000004
   218   1      51.649246041599973      8.5511961990980776      3.0874199999999998
   219   1      49.064882739019126      11.591623613899067      11.292730000000001
   220   1      27.477862189809471      24.665460354634355      11.292730000000001
   221   1      27.477862189809471      24.665460354634355      7.1900700000000004
   222   1      28.009993751878817      3.6860654580066239      22.492730000000002
   223   1      28.009993751878817      3.6860654580066239      18.390070000000001
   224   1      28.009993751878817      3.6860654580066239      14.287419999999999
   225   1      15.848450957385444        14.0237076292808      18.390070000000001
   226   1      15.848450957385444        14.0237076292808      14.287419999999999
   227   1      99.992034317542561      81.065383565617523      11.292730000000001
   228   1      99.992034317542561      81.065383565617523      7.1900700000000004
   229   1      99.992034317542561      81.065383565617523      3.0874199999999998
   230   1      97.407677491445909      84.105803361025337      11.292730000000001
   231   1      97.407677491445909      84.105803361025337      7.1900700000000004
   232   1      97.407677491445909      84.105803361025337      3.0874199999999998
   233   1      21.929222354632131      8.8548865436437119      22.492730000000002
   234   1      21.929222354632131      8.8548865436437119      18.390070000000001
   235   1      21.929222354632131      8.8548865436437119      14.287419999999999
   236   1      24.969604815013376      6.2704798105217572      22.492730000000002
   237   1      24.969604815013376      6.2704798105217572      18.390070000000001
   238   1      24.969604815013376      6.2704798105217572      14.287419999999999
   239   1      94.823314188865069      87.146230775826325      11.292730000000001
   240   1      94.823314188865069      87.146230775826325      7.1900700000000004
   241   1       102.5763976201234      78.024956150816536      7.1900700000000004
   242   1       102.5763976201234      78.024956150816536      3.0874199999999998
   243   1      18.888833417766683      11.439300896158844      22.492730000000002
   244   1      18.888833417766683      11.439300896158844      18.390070000000001
   245   1      18.888833417766683      11.439300896158844      14.287419999999999
   246   1      27.477862189809471      24.665460354634355      3.0874199999999998
   247   1      24.893498887228628      27.705887769435346      11.292730000000001
   248   1      24.893498887228628      27.705887769435346      7.1900700000000004
   249   1      24.893498887228628      27.705887769435346      3.0874199999999998
   250   1      49.064882739019126      11.591623613899067      7.1900700000000004
   251   1      49.064882739019126      11.591623613899067      3.0874199999999998
   252   1      46.480519436438286       14.63205102870006      11.292730000000001
   253   1      46.480519436438286       14.63205102870006      7.1900700000000004
   254   1      46.480519436438286       14.63205102870006      3.0874199999999998
   255   1      30.062219015906113      21.625040559226541      11.292730000000001
   256   1      15.848450957385444        14.0237076292808      22.492730000000002
   257   1      9.7676871795319293      19.192535191402087      18.390070000000001
   258   1      9.7676871795319293      19.192535191402087      14.287419999999999
   259   1      30.062219015906113      21.625040559226541      7.1900700000000004
   260   1      30.062219015906113      21.625040559226541      3.0874199999999998
   261   1      32.646582318486956       18.58461314442555      11.292730000000001
   262   1      32.646582318486956       18.58461314442555      7.1900700000000004
   263   1      32.646582318486956       18.58461314442555      3.0874199999999998
   264   1      43.896156133857438      17.672478443501053      11.292730000000001
   265   1      43.896156133857438      17.672478443501053      7.1900700000000004
   266   1      43.896156133857438      17.672478443501053      3.0874199999999998
   267   1      37.815308923648637      12.503758314823566      11.292730000000001
   268   1      37.815308923648637      12.503758314823566      7.1900700000000004
   269   1      12.808062020519998      16.608121981795932      22.492730000000002
   270   1      12.808062020519998      16.608121981795932      18.390070000000001
   271   1      12.808062020519998      16.608121981795932      14.287419999999999
   272   1       102.5763976201234      78.024956150816536      11.292730000000001
   273   1      81.445433563740707      96.723577132449449      11.292730000000001
   274   1      81.445433563740707      96.723577132449449      7.1900700000000004
   275   1      81.445433563740707      96.723577132449449      3.0874199999999998
   276   1       6.727298242666488      21.776949543917222      22.492730000000002
   277   1       6.727298242666488      21.776949543917222      18.390070000000001
   278   1       6.727298242666488      21.776949543917222      14.287419999999999
   279   1      3.6869093058010405      24.361363896432355      22.492730000000002
   280   1      3.6869093058010405      24.361363896432355      18.390070000000001
   281   1      3.6869093058010405      24.361363896432355      14.287419999999999
   282   1      78.861070261159867      99.764004547250437      11.292730000000001
   283   1      78.861070261159867      99.764004547250437      7.1900700000000004
   284   1      78.861070261159867      99.764004547250437      3.0874199999999998
   285   1      76.276706958579027      102.80443196205142      11.292730000000001
   286   1      76.276706958579027      102.80443196205142      7.1900700000000004
   287   1      76.276706958579027      102.80443196205142      3.0874199999999998
   288   1      9.7676871795319293      19.192535191402087      22.492730000000002
   289   1      36.675171882247461      1.5576268327507812      18.390070000000001
   290   1      36.675171882247461      1.5576268327507812      14.287419999999999
   291   1      84.029796866321561      93.683149717648448      11.292730000000001
   292   1      84.029796866321561      93.683149717648448      7.1900700000000004
   293   1      84.029796866321561      93.683149717648448      3.0874199999999998
   294   1      37.815308923648637      12.503758314823566      3.0874199999999998
   295   1      35.230945621067796      15.544185729624557      11.292730000000001
   296   1      35.230945621067796      15.544185729624557      7.1900700000000004
   297   1      35.230945621067796      15.544185729624557      3.0874199999999998
   298   1      41.311792831276598      20.712905858302044      11.292730000000001
   299   1      41.311792831276598      20.712905858302044      7.1900700000000004
   300   1      41.311792831276598      20.712905858302044      3.0874199999999998
   301   1      38.727429528695758      23.753333273103035      11.292730000000001
   302   1     0.64652684541979621      26.945770629554307      22.492730000000002
   303   1     0.64652684541979621      26.945770629554307      18.390070000000001
   304   1     0.64652684541979621      26.945770629554307      14.287419999999999
   305   1      86.614160168902401       90.64272230284746      3.0874199999999998
   306   1      33.634789421866216      4.1420335658727367      22.492730000000002
   307   1      40.399672226229484      9.4633309000225747      11.292730000000001
   308   1      40.399672226229484      9.4633309000225747      7.1900700000000004
   309   1      40.399672226229484      9.4633309000225747      3.0874199999999998
   310   1      38.727429528695758      23.753333273103035      7.1900700000000004
   311   1      38.727429528695758      23.753333273103035      3.0874199999999998
   312   1      36.143066226114911      26.793760687904026      11.292730000000001
   313   1      36.143066226114911      26.793760687904026      7.1900700000000004
   314   1      36.143066226114911      26.793760687904026      3.0874199999999998
   315   1      42.984035528810324      6.4229034852215818      11.292730000000001
   316   1      42.984035528810324      6.4229034852215818      7.1900700000000004
   317   1      42.984035528810324      6.4229034852215818      3.0874199999999998
   318   1      33.634789421866216      4.1420335658727367      18.390070000000001
   319   1      33.634789421866216      4.1420335658727367      14.287419999999999
   320   1      36.675171882247461      1.5576268327507812      22.492730000000002
   321   1      27.554011548135328      9.3108622709030016      18.390070000000001
   322   1      27.554011548135328      9.3108622709030016      14.287419999999999
   323   1       24.51363670714726      11.895275480509156      22.492730000000002
   324   1       24.51363670714726      11.895275480509156      18.390070000000001
   325   1       24.51363670714726      11.895275480509156      14.287419999999999
   326   1      91.782886774064082      84.561867473245471      11.292730000000001
   327   1      91.782886774064082      84.561867473245471      7.1900700000000004
   328   1      91.782886774064082      84.561867473245471      3.0874199999999998
   329   1      30.594400485000772      6.7264479183878665      22.492730000000002
   330   1      30.594400485000772      6.7264479183878665      18.390070000000001
   331   1      30.594400485000772      6.7264479183878665      14.287419999999999
   332   1      89.198523471483242      87.602294888046472      11.292730000000001
   333   1      89.198523471483242      87.602294888046472      7.1900700000000004
   334   1      89.198523471483242      87.602294888046472      3.0874199999999998
   335   1      86.614160168902401       90.64272230284746      11.292730000000001
   336   1      86.614160168902401       90.64272230284746      7.1900700000000004
   337   1      94.367250076644922      81.521440058444483      7.1900700000000004
   338   1      94.367250076644922      81.521440058444483      3.0874199999999998
   339   1      21.473247770281816      14.479689833024288      22.492730000000002
   340   1      21.473247770281816      14.479689833024288      18.390070000000001
   341   1      21.473247770281816      14.479689833024288      14.287419999999999
   342   1      27.554011548135328      9.3108622709030016      22.492730000000002
   343   1      48.152762133972011     0.34204865561960218      11.292730000000001
   344   1      48.152762133972011     0.34204865561960218      7.1900700000000004
   345   1      48.152762133972011     0.34204865561960218      3.0874199999999998
   346   1      45.568398831391171      3.3824760704205921      11.292730000000001
   347   1      45.568398831391171      3.3824760704205921      7.1900700000000004
   348   1      45.568398831391171      3.3824760704205921      3.0874199999999998
   349   1      33.558709400018273       29.83418048331184      11.292730000000001
   350   1      33.558709400018273       29.83418048331184      7.1900700000000004
   351   1      33.558709400018273       29.83418048331184      3.0874199999999998
   352   1      1.1781650517808993      49.444943785262431      3.0874199999999998
   353   1      99.535970205322414      75.440592848235681      7.1900700000000004
   354   1      99.535970205322414      75.440592848235681      3.0874199999999998
   355   1      96.951606902741574      78.481020263036669      11.292730000000001
   356   1      96.951606902741574      78.481020263036669      7.1900700000000004
   357   1      96.951606902741574      78.481020263036669      3.0874199999999998