(written by ASE)

9528 atoms
3 atom types

0.0       79.50774020858978  xlo xhi
0.0       79.50774020858978  ylo yhi
0.0                      50  zlo zhi

Masses

     1       137.3269999646734 # Ba
     2      15.998999995884349 # O
     3      47.866999987686484 # Ti

Atoms # atomic

     1   1      33.695655523437097      55.625380767432624      11.292730000000001
     2   1      33.695655523437097      55.625380767432624      7.1900700000000004
     3   1      33.695655523437097      55.625380767432624      3.0874199999999998
     4   1      32.494029946761941       59.43052842690394      11.292730000000001
     5   1      32.494029946761941       59.43052842690394      7.1900700000000004
     6   1      32.494029946761941       59.43052842690394      3.0874199999999998
     7   1      37.300541287403597      44.209909181538691      11.292730000000001
     8   1      37.300541287403597      44.209909181538691      7.1900700000000004
     9   1      37.300541287403597      44.209909181538691      3.0874199999999998
    10   1       30.09077277078427      67.040842817499893      11.292730000000001
    11   1       30.09077277078427      67.040842817499893      7.1900700000000004
    12   1       30.09077277078427      67.040842817499893      3.0874199999999998
    13   1      31.292401358773105       63.23568562220192      11.292730000000001
    14   1      31.292401358773105       63.23568562220192      7.1900700000000004
    15   1      31.292401358773105       63.23568562220192      3.0874199999999998
    16   1      28.889144182795434      70.846000012797873      11.292730000000001
    17   1      4.4545073412908804      77.054506731026351      18.390070000000001
    18   1      4.4545073412908804      77.054506731026351      14.287419999999999
    19   1      3.2529540361440277       73.24932494333332      22.492730000000002
    20   1      76.754003723877005       65.03813502869815      11.292730000000001
    21   1      76.754003723877005       65.03813502869815      7.1900700000000004
    22   1      76.754003723877005       65.03813502869815      3.0874199999999998
    23   1      77.955632311865841      61.232977833400163      11.292730000000001
    24   1      77.955632311865841      61.232977833400163      7.1900700000000004
    25   1      77.955632311865841      61.232977833400163      3.0874199999999998
    26   1      79.157260899854677       57.42782063810219      11.292730000000001
    27   1      78.155906754510994      73.850068471456282      11.292730000000001
    28   1      78.155906754510994      73.850068471456282      7.1900700000000004
    29   1      78.155906754510994      73.850068471456282      3.0874199999999998
    30   1       79.35753233118615      70.044920811984952      11.292730000000001
    31   1       79.35753233118615      70.044920811984952      7.1900700000000004
    32   1      36.098912699414761      48.015066376836664      3.0874199999999998
    33   1      3.4534759083965021      60.632226275107406      18.390070000000001
    34   1      3.4534759083965021      60.632226275107406      14.287419999999999
    35   1      4.6550292135433526      64.437408062800429      22.492730000000002
    36   1      4.6550292135433526      64.437408062800429      18.390070000000001
    37   1      4.6550292135433526      64.437408062800429      14.287419999999999
    38   1      73.149120971224178      76.453597078765426      11.292730000000001
    39   1      73.149120971224178      76.453597078765426      7.1900700000000004
    40   1      73.149120971224178      76.453597078765426      3.0874199999999998
    41   1      74.350749559213014      72.648439883467447      11.292730000000001
    42   1      7.0581358238370528      72.047771638186475      22.492730000000002
    43   1      7.0581358238370528      72.047771638186475      18.390070000000001
    44   1      7.0581358238370528      72.047771638186475      14.287419999999999
    45   1      5.8565825186902059      68.242589850493445      22.492730000000002
    46   1      5.8565825186902059      68.242589850493445      18.390070000000001
    47   1      5.8565825186902059      68.242589850493445      14.287419999999999
    48   1      8.2596891289839061      75.852953425879491      22.492730000000002
    49   1      10.863317611530077       70.84621833303963      14.287419999999999
    50   1      13.266424221823774      78.456581908425676      22.492730000000002
    51   1      13.266424221823774      78.456581908425676      18.390070000000001
    52   1      13.266424221823774      78.456581908425676      14.287419999999999
    53   1      12.064870916676931      74.651400120732646      22.492730000000002
    54   1      12.064870916676931      74.651400120732646      18.390070000000001
    55   1      78.956989468523204      44.810720464219429      11.292730000000001
    56   1      78.956989468523204      44.810720464219429      7.1900700000000004
    57   1      78.956989468523204      44.810720464219429      3.0874199999999998
    58   1      2.2519226032496515      56.827044487414376      22.492730000000002
    59   1      2.2519226032496515      56.827044487414376      18.390070000000001
    60   1      2.2519226032496515      56.827044487414376      14.287419999999999
    61   1      1.0503758226157771      53.021875246861683      22.492730000000002
    62   1      1.0503758226157771      53.021875246861683      18.390070000000001
    63   1      1.0503758226157771      53.021875246861683      14.287419999999999
    64   1      3.4534759083965021      60.632226275107406      22.492730000000002
    65   1      8.4602110012363738      63.235854757653577      18.390070000000001
    66   1      8.4602110012363738      63.235854757653577      14.287419999999999
    67   1      7.2586576960895268      59.430672969960554      22.492730000000002
    68   1      7.2586576960895268      59.430672969960554      18.390070000000001
    69   1      76.553732292545533      52.421034854815382      11.292730000000001
    70   1      76.553732292545533      52.421034854815382      7.1900700000000004
    71   1      76.553732292545533      52.421034854815382      3.0874199999999998
    72   1      77.755360880534369      48.615877659517409      11.292730000000001
    73   1      77.755360880534369      48.615877659517409      7.1900700000000004
    74   1      77.755360880534369      48.615877659517409      3.0874199999999998
    75   1      9.6617643063832244        67.0410365453466      22.492730000000002
    76   1      9.6617643063832244        67.0410365453466      18.390070000000001
    77   1      9.6617643063832244        67.0410365453466      14.287419999999999
    78   1      12.064870916676931      74.651400120732646      14.287419999999999
    79   1      10.863317611530077       70.84621833303963      22.492730000000002
    80   1      10.863317611530077       70.84621833303963      18.390070000000001
    81   1      2.4524510000150985      44.209958366328785      22.492730000000002
    82   1      2.4524510000150985      44.209958366328785      18.390070000000001
    83   1      74.150475116567861      60.031349245411327      11.292730000000001
    84   1      74.150475116567861      60.031349245411327      7.1900700000000004
    85   1      74.150475116567861      60.031349245411327      3.0874199999999998
    86   1      75.352103704556697      56.226192050113355      11.292730000000001
    87   1      75.352103704556697      56.226192050113355      7.1900700000000004
    88   1      75.352103704556697      56.226192050113355      3.0874199999999998
    89   1      4.8555480744821473      51.820318930401157      22.492730000000002
    90   1      4.8555480744821473      51.820318930401157      18.390070000000001
    91   1      4.8555480744821473      51.820318930401157      14.287419999999999
    92   1      7.2586576960895268      59.430672969960554      14.287419999999999
    93   1      6.0571013796289996       55.62550071809418      22.492730000000002
    94   1      6.0571013796289996       55.62550071809418      18.390070000000001
    95   1      6.0571013796289996       55.62550071809418      14.287419999999999
    96   1      8.4602110012363738      63.235854757653577      22.492730000000002
    97   1      15.870052704369956      73.449846815585801      14.287419999999999
    98   1      17.071606009516799      77.255028603278831      22.492730000000002
    99   1      17.071606009516799      77.255028603278831      18.390070000000001
   100   1    0.049344389721396986      36.599594790942739      22.492730000000002
   101   1    0.049344389721396986      36.599594790942739      18.390070000000001
   102   1    0.049344389721396986      36.599594790942739      14.287419999999999
   103   1      72.948846528579026      63.836506440709307      11.292730000000001
   104   1      72.948846528579026      63.836506440709307      7.1900700000000004
   105   1      72.948846528579026      63.836506440709307      3.0874199999999998
   106   1      2.4524510000150985      44.209958366328785      14.287419999999999
   107   1      1.2508976948682475      40.404776578635769      22.492730000000002
   108   1      1.2508976948682475      40.404776578635769      18.390070000000001
   109   1      1.2508976948682475      40.404776578635769      14.287419999999999
   110   1      3.6540043051619455      48.015140154021815      22.492730000000002
   111   1      3.6540043051619455      48.015140154021815      18.390070000000001
   112   1      3.6540043051619455      48.015140154021815      14.287419999999999
   113   1      11.063836472468871      58.229129200640358      18.390070000000001
   114   1      11.063836472468871      58.229129200640358      14.287419999999999
   115   1      13.466946094076249      65.839483240199755      22.492730000000002
   116   1      13.466946094076249      65.839483240199755      18.390070000000001
   117   1      13.466946094076249      65.839483240199755      14.287419999999999
   118   1      12.265392788929399      62.034301452506725      22.492730000000002
   119   1      12.265392788929399      62.034301452506725      18.390070000000001
   120   1       71.74721794059019       67.64166363600728      11.292730000000001
   121   1       71.74721794059019       67.64166363600728      7.1900700000000004
   122   1       71.74721794059019       67.64166363600728      3.0874199999999998
   123   1      14.668499399223098      69.644665027892771      22.492730000000002
   124   1      14.668499399223098      69.644665027892771      18.390070000000001
   125   1      14.668499399223098      69.644665027892771      14.287419999999999
   126   1      17.071606009516799      77.255028603278831      14.287419999999999
   127   1      15.870052704369956      73.449846815585801      22.492730000000002
   128   1      15.870052704369956      73.449846815585801      18.390070000000001
   129   1      69.343963775926198      75.251968490776591      11.292730000000001
   130   1      69.343963775926198      75.251968490776591      7.1900700000000004
   131   1      69.343963775926198      75.251968490776591      3.0874199999999998
   132   1      70.545592363915034      71.446811295478611      11.292730000000001
   133   1      70.545592363915034      71.446811295478611      7.1900700000000004
   134   1      70.545592363915034      71.446811295478611      3.0874199999999998
   135   1      8.6607298621751685      50.618765625254312      22.492730000000002
   136   1      8.6607298621751685      50.618765625254312      18.390070000000001
   137   1      8.6607298621751685      50.618765625254312      14.287419999999999
   138   1      7.4591765570283215      46.813583837561282      22.492730000000002
   139   1      7.4591765570283215      46.813583837561282      18.390070000000001
   140   1      9.8622831673220208      54.423947412947328      22.492730000000002
   141   1      9.8622831673220208      54.423947412947328      18.390070000000001
   142   1      9.8622831673220208      54.423947412947328      14.287419999999999
   143   1      12.265392788929399      62.034301452506725      14.287419999999999
   144   1      11.063836472468871      58.229129200640358      22.492730000000002
   145   1      1.4514165558070429      27.787687446236493      14.287419999999999
   146   1      3.8545261774144217      35.398041485795886      22.492730000000002
   147   1      3.8545261774144217      35.398041485795886      18.390070000000001
   148   1      3.8545261774144217      35.398041485795886      14.287419999999999
   149   1      2.6529698609538928      31.592869233929516      22.492730000000002
   150   1      2.6529698609538928      31.592869233929516      18.390070000000001
   151   1      68.142335187937363      79.057125686074571      11.292730000000001
   152   1      68.142335187937363      79.057125686074571      7.1900700000000004
   153   1      68.142335187937363      79.057125686074571      3.0874199999999998
   154   1      5.0560794825612705      39.203223273488916      22.492730000000002
   155   1      5.0560794825612705      39.203223273488916      18.390070000000001
   156   1      5.0560794825612705      39.203223273488916      14.287419999999999
   157   1      7.4591765570283215      46.813583837561282      14.287419999999999
   158   1      6.2576232518814709      43.008402049868259      22.492730000000002
   159   1      6.2576232518814709      43.008402049868259      18.390070000000001
   160   1      6.2576232518814709      43.008402049868259      14.287419999999999
   161   1       19.67523449206297      72.248293510438955      22.492730000000002
   162   1       19.67523449206297      72.248293510438955      18.390070000000001
   163   1       19.67523449206297      72.248293510438955      14.287419999999999
   164   1      76.353470397040724      39.803937692246301      3.0874199999999998
   165   1      77.555098985029559      35.998780496948321      11.292730000000001
   166   1      77.555098985029559      35.998780496948321      7.1900700000000004
   167   1      77.555098985029559      35.998780496948321      3.0874199999999998
   168   1      78.756727573018395      32.193623301650348      11.292730000000001
   169   1      78.756727573018395      32.193623301650348      7.1900700000000004
   170   1      78.756727573018395      32.193623301650348      3.0874199999999998
   171   1     0.24986325066019113       23.98250565854347      22.492730000000002
   172   1     0.24986325066019113       23.98250565854347      18.390070000000001
   173   1     0.24986325066019113       23.98250565854347      14.287419999999999
   174   1      2.6529698609538928      31.592869233929516      14.287419999999999
   175   1      1.4514165558070429      27.787687446236493      22.492730000000002
   176   1      1.4514165558070429      27.787687446236493      18.390070000000001
   177   1      14.869018260161896      57.027575895493506      18.390070000000001
   178   1      14.869018260161896      57.027575895493506      14.287419999999999
   179   1      17.272127881769276       64.63792993505291      22.492730000000002
   180   1      17.272127881769276       64.63792993505291      18.390070000000001
   181   1      17.272127881769276       64.63792993505291      14.287419999999999
   182   1      75.151841809051888      43.609094887544273      11.292730000000001
   183   1      75.151841809051888      43.609094887544273      7.1900700000000004
   184   1      75.151841809051888      43.609094887544273      3.0874199999999998
   185   1      76.353470397040724      39.803937692246301      11.292730000000001
   186   1      76.353470397040724      39.803937692246301      7.1900700000000004
   187   1      18.473681186916131      68.443111722745925      22.492730000000002
   188   1      18.473681186916131      68.443111722745925      18.390070000000001
   189   1      18.473681186916131      68.443111722745925      14.287419999999999
   190   1      20.876778261383176      76.053472286818305      22.492730000000002
   191   1      20.876778261383176      76.053472286818305      18.390070000000001
   192   1      20.876778261383176      76.053472286818305      14.287419999999999
   193   1      10.062805039574494      41.806848744721414      22.492730000000002
   194   1      10.062805039574494      41.806848744721414      18.390070000000001
   195   1      10.062805039574494      41.806848744721414      14.287419999999999
   196   1      12.465911649868197       49.41721232010746      22.492730000000002
   197   1      12.465911649868197       49.41721232010746      18.390070000000001
   198   1      12.465911649868197       49.41721232010746      14.287419999999999
   199   1      73.950213221063052      47.414252082842253      11.292730000000001
   200   1      73.950213221063052      47.414252082842253      7.1900700000000004
   201   1      73.950213221063052      47.414252082842253      3.0874199999999998
   202   1      13.667464955015046      53.222394107800476      22.492730000000002
   203   1      13.667464955015046      53.222394107800476      18.390070000000001
   204   1      13.667464955015046      53.222394107800476      14.287419999999999
   205   1      16.070574576622427      60.832748147359879      22.492730000000002
   206   1      16.070574576622427      60.832748147359879      18.390070000000001
   207   1      16.070574576622427      60.832748147359879      14.287419999999999
   208   1      14.869018260161896      57.027575895493506      22.492730000000002
   209   1      5.2565983435000678      26.586134141089641      22.492730000000002
   210   1      5.2565983435000678      26.586134141089641      18.390070000000001
   211   1      5.2565983435000678      26.586134141089641      14.287419999999999
   212   1      7.6597079651074473      34.196488180649041      22.492730000000002
   213   1      7.6597079651074473      34.196488180649041      18.390070000000001
   214   1      7.6597079651074473      34.196488180649041      14.287419999999999
   215   1      71.546956045085381      55.024566473438199      3.0874199999999998
   216   1      72.748584633074216      51.219409278140226      11.292730000000001
   217   1      72.748584633074216      51.219409278140226      7.1900700000000004
   218   1      72.748584633074216      51.219409278140226      3.0874199999999998
   219   1      8.8612517344276434      38.001666957028384      22.492730000000002
   220   1      8.8612517344276434      38.001666957028384      18.390070000000001
   221   1      8.8612517344276434      38.001666957028384      14.287419999999999
   222   1      11.264358344721346       45.61203053241443      22.492730000000002
   223   1      11.264358344721346       45.61203053241443      18.390070000000001
   224   1      11.264358344721346       45.61203053241443      14.287419999999999
   225   1     0.45038512291266647      11.365406990317545      18.390070000000001
   226   1     0.45038512291266647      11.365406990317545      14.287419999999999
   227   1      2.8534917332063663      18.975770565703595      22.492730000000002
   228   1      2.8534917332063663      18.975770565703595      18.390070000000001
   229   1      2.8534917332063663      18.975770565703595      14.287419999999999
   230   1      70.345327457096545      58.829723668736172      11.292730000000001
   231   1      70.345327457096545      58.829723668736172      7.1900700000000004
   232   1      70.345327457096545      58.829723668736172      3.0874199999999998
   233   1      71.546956045085381      55.024566473438199      11.292730000000001
   234   1      71.546956045085381      55.024566473438199      7.1900700000000004
   235   1      4.0550450383532164      22.780952353396618      22.492730000000002
   236   1      4.0550450383532164      22.780952353396618      18.390070000000001
   237   1      4.0550450383532164      22.780952353396618      14.287419999999999
   238   1      6.4581516486469175      30.391315928782664      22.492730000000002
   239   1      6.4581516486469175      30.391315928782664      18.390070000000001
   240   1      6.4581516486469175      30.391315928782664      14.287419999999999
   241   1      23.480406743929354      71.046737193978416      22.492730000000002
   242   1      23.480406743929354      71.046737193978416      18.390070000000001
   243   1      23.480406743929354      71.046737193978416      14.287419999999999
   244   1      24.681960049076192      74.851918981671446      22.492730000000002
   245   1      24.681960049076192      74.851918981671446      18.390070000000001
   246   1      24.681960049076192      74.851918981671446      14.287419999999999
   247   1      69.143698869107709      62.634880864034152      11.292730000000001
   248   1      69.143698869107709      62.634880864034152      7.1900700000000004
   249   1      69.143698869107709      62.634880864034152      3.0874199999999998
   250   1      25.883513354223048      78.657100769364462      22.492730000000002
   251   1      25.883513354223048      78.657100769364462      18.390070000000001
   252   1      25.883513354223048      78.657100769364462      14.287419999999999
   253   1      1.6519384280595164      15.170588778010568      22.492730000000002
   254   1      1.6519384280595164      15.170588778010568      18.390070000000001
   255   1      1.6519384280595164      15.170588778010568      14.287419999999999
   256   1     0.45038512291266647      11.365406990317545      22.492730000000002
   257   1      18.674200047854924      55.826022590346653      22.492730000000002
   258   1      18.674200047854924      55.826022590346653      18.390070000000001
   259   1      18.674200047854924      55.826022590346653      14.287419999999999
   260   1      19.875753353001766      59.631204378039676      22.492730000000002
   261   1      19.875753353001766      59.631204378039676      18.390070000000001
   262   1      19.875753353001766      59.631204378039676      14.287419999999999
   263   1      66.740444704443718      70.245185718803455      3.0874199999999998
   264   1      67.942070281118873      66.440038059332124      11.292730000000001
   265   1      67.942070281118873      66.440038059332124      7.1900700000000004
   266   1      67.942070281118873      66.440038059332124      3.0874199999999998
   267   1      22.278862974609147       67.24155841759908      22.492730000000002
   268   1      22.278862974609147       67.24155841759908      18.390070000000001
   269   1      22.278862974609147       67.24155841759908      14.287419999999999
   270   1      21.077309669462299       63.43637662990605      22.492730000000002
   271   1      21.077309669462299       63.43637662990605      18.390070000000001
   272   1      21.077309669462299       63.43637662990605      14.287419999999999
   273   1      13.867986827267519      40.605295439574562      18.390070000000001
   274   1      13.867986827267519      40.605295439574562      14.287419999999999
   275   1      15.069540132414371      44.410477227267577      22.492730000000002
   276   1      15.069540132414371      44.410477227267577      18.390070000000001
   277   1      15.069540132414371      44.410477227267577      14.287419999999999
   278   1      65.538816116454882      74.050342914101435      11.292730000000001
   279   1      65.538816116454882      74.050342914101435      7.1900700000000004
   280   1      65.538816116454882      74.050342914101435      3.0874199999999998
   281   1      66.740444704443718      70.245185718803455      11.292730000000001
   282   1      66.740444704443718      70.245185718803455      7.1900700000000004
   283   1      17.472646742708069      52.020840802653638      22.492730000000002
   284   1      17.472646742708069      52.020840802653638      18.390070000000001
   285   1      17.472646742708069      52.020840802653638      14.287419999999999
   286   1       16.27109343756122      48.215659014960607      22.492730000000002
   287   1       16.27109343756122      48.215659014960607      18.390070000000001
   288   1       16.27109343756122      48.215659014960607      14.287419999999999
   289   1      9.0617801311930926      25.384580835942792      22.492730000000002
   290   1      9.0617801311930926      25.384580835942792      18.390070000000001
   291   1      9.0617801311930926      25.384580835942792      14.287419999999999
   292   1      10.263323900513289      29.189759612322138      22.492730000000002
   293   1      10.263323900513289      29.189759612322138      18.390070000000001
   294   1      10.263323900513289      29.189759612322138      14.287419999999999
   295   1      64.337187528466046      77.855500109399415      11.292730000000001
   296   1      64.337187528466046      77.855500109399415      7.1900700000000004
   297   1      64.337187528466046      77.855500109399415      3.0874199999999998
   298   1      12.666433522120672      36.800113651881531      22.492730000000002
   299   1      12.666433522120672      36.800113651881531      18.390070000000001
   300   1      12.666433522120672      36.800113651881531      14.287419999999999
   301   1      11.464877205660141      32.994941400015165      22.492730000000002
   302   1      11.464877205660141      32.994941400015165      18.390070000000001
   303   1      11.464877205660141      32.994941400015165      14.287419999999999
   304   1      13.867986827267519      40.605295439574562      22.492730000000002
   305   1        5.45712021575254       13.96903547286372      22.492730000000002
   306   1        5.45712021575254       13.96903547286372      18.390070000000001
   307   1        5.45712021575254       13.96903547286372      14.287419999999999
   308   1      76.153198965709251      27.186837518363536      3.0874199999999998
   309   1      77.354824542384407      23.381689858892212      11.292730000000001
   310   1      77.354824542384407      23.381689858892212      7.1900700000000004
   311   1      77.354824542384407      23.381689858892212      3.0874199999999998
   312   1      78.556453130373228      19.576532663594236      11.292730000000001
   313   1      78.556453130373228      19.576532663594236      7.1900700000000004
   314   1      78.556453130373228      19.576532663594236      3.0874199999999998
   315   1      7.8602268260462411      21.579399048249769      22.492730000000002
   316   1      7.8602268260462411      21.579399048249769      18.390070000000001
   317   1      7.8602268260462411      21.579399048249769      14.287419999999999
   318   1      6.6586735208993888      17.774217260556746      22.492730000000002
   319   1      6.6586735208993888      17.774217260556746      18.390070000000001
   320   1      6.6586735208993888      17.774217260556746      14.287419999999999
   321   1      28.487141836769226      73.650365676524601      18.390070000000001
   322   1      28.487141836769226      73.650365676524601      14.287419999999999
   323   1      74.951570377720415      30.991994713661512      11.292730000000001
   324   1      74.951570377720415      30.991994713661512      7.1900700000000004
   325   1      74.951570377720415      30.991994713661512      3.0874199999999998
   326   1      76.153198965709251      27.186837518363536      11.292730000000001
   327   1      76.153198965709251      27.186837518363536      7.1900700000000004
   328   1      3.0540105941451614      6.3586814333043229      22.492730000000002
   329   1      3.0540105941451614      6.3586814333043229      18.390070000000001
   330   1      3.0540105941451614      6.3586814333043229      14.287419999999999
   331   1      1.8524572889983111      2.5534996456112986      22.492730000000002
   332   1      1.8524572889983111      2.5534996456112986      18.390070000000001
   333   1      1.8524572889983111      2.5534996456112986      14.287419999999999
   334   1      4.2555669106056904      10.163853685170695      22.492730000000002
   335   1      4.2555669106056904      10.163853685170695      18.390070000000001
   336   1      4.2555669106056904      10.163853685170695      14.287419999999999
   337   1      23.680935140694789      58.429651072892831      22.492730000000002
   338   1      23.680935140694789      58.429651072892831      18.390070000000001
   339   1      23.680935140694789      58.429651072892831      14.287419999999999
   340   1      26.084035226475521      66.040002101138541      22.492730000000002
   341   1      26.084035226475521      66.040002101138541      18.390070000000001
   342   1      26.084035226475521      66.040002101138541      14.287419999999999
   343   1      73.749941789731579      34.797151908959485      11.292730000000001
   344   1      73.749941789731579      34.797151908959485      7.1900700000000004
   345   1      73.749941789731579      34.797151908959485      3.0874199999999998
   346   1       27.28558853162237      69.845183888831571      22.492730000000002
   347   1       27.28558853162237      69.845183888831571      18.390070000000001
   348   1       27.28558853162237      69.845183888831571      14.287419999999999
   349   1      29.688695141916075      77.455547464217616      22.492730000000002
   350   1      29.688695141916075      77.455547464217616      18.390070000000001
   351   1      29.688695141916075      77.455547464217616      14.287419999999999
   352   1      28.487141836769226      73.650365676524601      22.492730000000002
   353   1       18.87472192010739      43.208923922120732      22.492730000000002
   354   1       18.87472192010739      43.208923922120732      18.390070000000001
   355   1       18.87472192010739      43.208923922120732      14.287419999999999
   356   1      21.277828530401095      50.819287497506778      22.492730000000002
   357   1      21.277828530401095      50.819287497506778      18.390070000000001