(written by ASE)

3480 atoms
3 atom types

0.0      48.050527278882271  xlo xhi
0.0      48.050527278882271  ylo yhi
0.0                      50  zlo zhi

Masses

     1       137.3269999646734 # Ba
     2      15.998999995884349 # O
     3      47.866999987686484 # Ti

Atoms # atomic

     1   1      6.7105057782226281      17.977521879142316      11.292730000000001
     2   1      6.7105057782226281      17.977521879142316      7.1900700000000004
     3   1      6.7105057782226281      17.977521879142316      3.0874199999999998
     4   1      12.012634128602899      12.012627484964511      11.292730000000001
     5   1      12.012634128602899      12.012627484964511      7.1900700000000004
     6   1      12.012634128602899      12.012627484964511      3.0874199999999998
     7   1      2.5684347531904623      4.3906934130730928      18.390070000000001
     8   1      2.5684347531904623      4.3906934130730928      14.287419999999999
     9   1        5.55075406024039      1.7394756037452288      22.492730000000002
    10   1        5.55075406024039      1.7394756037452288      18.390070000000001
    11   1        5.55075406024039      1.7394756037452288      14.287419999999999
    12   1      44.819545822487633      41.174326768417615      11.292730000000001
    13   1      44.819545822487633      41.174326768417615      7.1900700000000004
    14   1      44.819545822487633      41.174326768417615      3.0874199999999998
    15   1      38.358625759872233        20.6266278419175      22.492730000000002
    16   1      38.358625759872233        20.6266278419175      18.390070000000001
    17   1      36.534970275018466       44.48815698740529      11.292730000000001
    18   1      36.534970275018466       44.48815698740529      7.1900700000000004
    19   1      36.534970275018466       44.48815698740529      3.0874199999999998
    20   1       33.88390609982833      47.470604184494192      11.292730000000001
    21   1       33.88390609982833      47.470604184494192      7.1900700000000004
    22   1       33.88390609982833      47.470604184494192      3.0874199999999998
    23   1      47.470603354039383      38.191887045421893      11.292730000000001
    24   1      47.470603354039383      38.191887045421893      7.1900700000000004
    25   1      47.470603354039383      38.191887045421893      3.0874199999999998
    26   1      2.5684347531904623      4.3906934130730928      22.492730000000002
    27   1      47.801993019576535      43.825390943607751      11.292730000000001
    28   1      47.801993019576535      43.825390943607751      7.1900700000000004
    29   1      47.801993019576535      43.825390943607751      3.0874199999999998
    30   1      45.150928844386399      46.807838140696653      11.292730000000001
    31   1      45.150928844386399      46.807838140696653      7.1900700000000004
    32   1      39.517417472107361      47.139221162595419      3.0874199999999998
    33   1      41.837098625398738      38.523262593227486      7.1900700000000004
    34   1      41.837098625398738      38.523262593227486      3.0874199999999998
    35   1      5.2196592061567149      7.3730052460298339      22.492730000000002
    36   1      5.2196592061567149      7.3730052460298339      18.390070000000001
    37   1      5.2196592061567149      7.3730052460298339      14.287419999999999
    38   1      11.184283702524993      2.0705704578289037      22.492730000000002
    39   1       17.31475583534478       6.047740564879895      11.292730000000001
    40   1       17.31475583534478       6.047740564879895      7.1900700000000004
    41   1       17.31475583534478       6.047740564879895      3.0874199999999998
    42   1      1.4083774278423582       23.94241627332012      11.292730000000001
    43   1      1.4083774278423582       23.94241627332012      7.1900700000000004
    44   1      1.4083774278423582       23.94241627332012      3.0874199999999998
    45   1      22.616884185725052    0.082846170702091215      11.292730000000001
    46   1      22.616884185725052    0.082846170702091215      7.1900700000000004
    47   1      22.616884185725052    0.082846170702091215      3.0874199999999998
    48   1      11.184283702524993      2.0705704578289037      18.390070000000001
    49   1      16.817806701171211      2.4016727860057658      18.390070000000001
    50   1      16.817806701171211      2.4016727860057658      14.287419999999999
    51   1      19.965820010534916      3.0652933677909933      11.292730000000001
    52   1      19.965820010534916      3.0652933677909933      7.1900700000000004
    53   1      19.965820010534916      3.0652933677909933      3.0874199999999998
    54   1      25.599331382813954      2.7339103458922289      11.292730000000001
    55   1      25.599331382813954      2.7339103458922289      7.1900700000000004
    56   1      25.599331382813954      2.7339103458922289      3.0874199999999998
    57   1      1.0769944059435919      18.308904901041085      11.292730000000001
    58   1      1.0769944059435919      18.308904901041085      7.1900700000000004
    59   1      1.0769944059435919      18.308904901041085      3.0874199999999998
    60   1      6.3791227563238628      12.344010506863279      7.1900700000000004
    61   1      2.2373465427451755       10.02421558126451      22.492730000000002
    62   1      2.2373465427451755       10.02421558126451      18.390070000000001
    63   1      2.2373465427451755       10.02421558126451      14.287419999999999
    64   1      41.837098625398738      38.523262593227486      11.292730000000001
    65   1      30.901458902739421      44.819540009304056      11.292730000000001
    66   1      30.901458902739421      44.819540009304056      7.1900700000000004
    67   1      30.901458902739421      44.819540009304056      3.0874199999999998
    68   1      28.250394727549288      47.801987206392951      11.292730000000001
    69   1      28.250394727549288      47.801987206392951      7.1900700000000004
    70   1      28.250394727549288      47.801987206392951      3.0874199999999998
    71   1      13.835494037759672      5.0528831212404421      22.492730000000002
    72   1      13.835494037759672      5.0528831212404421      18.390070000000001
    73   1      13.835494037759672      5.0528831212404421      14.287419999999999
    74   1      47.139220332140617      32.558375673142869      11.292730000000001
    75   1      47.139220332140617      32.558375673142869      7.1900700000000004
    76   1      47.139220332140617      32.558375673142869      3.0874199999999998
    77   1      44.488156156950488      35.540822870231764      11.292730000000001
    78   1      44.488156156950488      35.540822870231764      7.1900700000000004
    79   1      44.488156156950488      35.540822870231764      3.0874199999999998
    80   1      16.817806701171211      2.4016727860057658      22.492730000000002
    81   1      4.8885643520730397      13.006534888314439      14.287419999999999
    82   1      33.552523077929557      41.837092812215154      11.292730000000001
    83   1      33.552523077929557      41.837092812215154      7.1900700000000004
    84   1      33.552523077929557      41.837092812215154      3.0874199999999998
    85   1       10.85318884844132       7.704100100113509      22.492730000000002
    86   1       10.85318884844132       7.704100100113509      18.390070000000001
    87   1       10.85318884844132       7.704100100113509      14.287419999999999
    88   1      6.3791227563238628      12.344010506863279      3.0874199999999998
    89   1      3.7280585811337272      15.326457703952181      11.292730000000001
    90   1      3.7280585811337272      15.326457703952181      7.1900700000000004
    91   1      3.7280585811337272      15.326457703952181      3.0874199999999998
    92   1      22.948267207623822      5.7163575429811306      11.292730000000001
    93   1      22.948267207623822      5.7163575429811306      7.1900700000000004
    94   1      22.948267207623822      5.7163575429811306      3.0874199999999998
    95   1      9.0301869315139989      9.3615633097743771      11.292730000000001
    96   1      7.8708695413913938      10.355317909441375      22.492730000000002
    97   1      36.203587253119693      38.854645615126252      7.1900700000000004
    98   1      36.203587253119693      38.854645615126252      3.0874199999999998
    99   1      7.8708695413913938      10.355317909441375      18.390070000000001
   100   1      7.8708695413913938      10.355317909441375      14.287419999999999
   101   1      9.0301869315139989      9.3615633097743771      7.1900700000000004
   102   1      9.0301869315139989      9.3615633097743771      3.0874199999999998
   103   1      6.3791227563238628      12.344010506863279      11.292730000000001
   104   1      20.297203032433686      8.6988047400700328      11.292730000000001
   105   1      20.297203032433686      8.6988047400700328      7.1900700000000004
   106   1      20.297203032433686      8.6988047400700328      3.0874199999999998
   107   1       17.64613885724355      11.681251937158935      11.292730000000001
   108   1       17.64613885724355      11.681251937158935      7.1900700000000004
   109   1       17.64613885724355      11.681251937158935      3.0874199999999998
   110   1      11.681244463065745       6.379123586778662      11.292730000000001
   111   1      4.8885643520730397      13.006534888314439      22.492730000000002
   112   1      4.8885643520730397      13.006534888314439      18.390070000000001
   113   1      22.451336343455814      2.7327676400894396      22.492730000000002
   114   1      22.451336343455814      2.7327676400894396      18.390070000000001
   115   1      22.451336343455814      2.7327676400894396      14.287419999999999
   116   1      41.505708959861579      32.889758695041628      11.292730000000001
   117   1      41.505708959861579      32.889758695041628      7.1900700000000004
   118   1      41.505708959861579      32.889758695041628      3.0874199999999998
   119   1      38.854651428309829       35.87219841803735      11.292730000000001
   120   1      25.433641532774168    0.081550661216375012      22.492730000000002
   121   1      25.433641532774168    0.081550661216375012      18.390070000000001
   122   1      25.433641532774168    0.081550661216375012      14.287419999999999
   123   1      1.9062516886615013      15.657745223549115      22.492730000000002
   124   1      1.9062516886615013      15.657745223549115      18.390070000000001
   125   1      1.9062516886615013      15.657745223549115      14.287419999999999
   126   1      38.854651428309829       35.87219841803735      7.1900700000000004
   127   1      38.854651428309829       35.87219841803735      3.0874199999999998
   128   1      36.203587253119693      38.854645615126252      11.292730000000001
   129   1      16.486711847087538       8.035202428290372      22.492730000000002
   130   1      16.486711847087538       8.035202428290372      18.390070000000001
   131   1      44.156773135051708       29.90731149795273      11.292730000000001
   132   1      44.156773135051708       29.90731149795273      7.1900700000000004
   133   1      44.156773135051708       29.90731149795273      3.0874199999999998
   134   1      11.681244463065745       6.379123586778662      7.1900700000000004
   135   1      11.681244463065745       6.379123586778662      3.0874199999999998
   136   1      16.983372813446017     0.41422919260085889      7.1900700000000004
   137   1      16.983372813446017     0.41422919260085889      3.0874199999999998
   138   1      14.332308638255881      3.3966763896897607      11.292730000000001
   139   1      14.332308638255881      3.3966763896897607      7.1900700000000004
   140   1      14.332308638255881      3.3966763896897607      3.0874199999999998
   141   1      14.995081325691803      14.663691660154649      11.292730000000001
   142   1      14.995081325691803      14.663691660154649      7.1900700000000004
   143   1      14.995081325691803      14.663691660154649      3.0874199999999998
   144   1     0.74561138404482596      12.675393528762047      3.0874199999999998
   145   1      46.807837310241844      26.924864300863828      7.1900700000000004
   146   1      46.807837310241844      26.924864300863828      3.0874199999999998
   147   1      16.486711847087538       8.035202428290372      14.287419999999999
   148   1      13.504399183675996      10.686412763525047      22.492730000000002
   149   1      13.504399183675996      10.686412763525047      18.390070000000001
   150   1      13.504399183675996      10.686412763525047      14.287419999999999
   151   1      16.983372813446017     0.41422919260085889      11.292730000000001
   152   1      12.344017150501667      17.646138857243553      11.292730000000001
   153   1      12.344017150501667      17.646138857243553      7.1900700000000004
   154   1      12.344017150501667      17.646138857243553      3.0874199999999998
   155   1       3.396675559234962       9.692946331673145      11.292730000000001
   156   1       3.396675559234962       9.692946331673145      7.1900700000000004
   157   1       3.396675559234962       9.692946331673145      3.0874199999999998
   158   1      19.469023680044277      5.3839779753241181      22.492730000000002
   159   1      19.469023680044277      5.3839779753241181      18.390070000000001
   160   1      19.469023680044277      5.3839779753241181      14.287419999999999
   161   1      10.522086520264457      13.337623098759725      18.390070000000001
   162   1     0.74561138404482596      12.675393528762047      11.292730000000001
   163   1     0.74561138404482596      12.675393528762047      7.1900700000000004
   164   1      9.6929529753115311      20.628586054332455      11.292730000000001
   165   1      9.6929529753115311      20.628586054332455      7.1900700000000004
   166   1      9.6929529753115311      20.628586054332455      3.0874199999999998
   167   1       7.041888800121396      23.611033251421357      11.292730000000001
   168   1       7.041888800121396      23.611033251421357      7.1900700000000004
   169   1       7.041888800121396      23.611033251421357      3.0874199999999998
   170   1      6.0477397344250967      6.7104991345842429      11.292730000000001
   171   1      6.0477397344250967      6.7104991345842429      7.1900700000000004
   172   1      10.522086520264457      13.337623098759725      14.287419999999999
   173   1      25.267947530460386      45.150923031202808      11.292730000000001
   174   1      25.267947530460386      45.150923031202808      7.1900700000000004
   175   1      25.267947530460386      45.150923031202808      3.0874199999999998
   176   1      46.807837310241844      26.924864300863828      11.292730000000001
   177   1      4.5574620238961776      18.640057886960655      14.287419999999999
   178   1      1.5751568345778266      21.291274865833721      22.492730000000002
   179   1      1.5751568345778266      21.291274865833721      18.390070000000001
   180   1      1.5751568345778266      21.291274865833721      14.287419999999999
   181   1      30.570075880840655      39.186028637025011      11.292730000000001
   182   1      30.570075880840655      39.186028637025011      7.1900700000000004
   183   1      30.570075880840655      39.186028637025011      3.0874199999999998
   184   1      7.5397813309461048      15.988840077632791      22.492730000000002
   185   1      7.5397813309461048      15.988840077632791      18.390070000000001
   186   1      7.5397813309461048      15.988840077632791      14.287419999999999
   187   1      4.5574620238961776      18.640057886960655      22.492730000000002
   188   1      4.5574620238961776      18.640057886960655      18.390070000000001
   189   1      27.919011705650519      42.168475834113913      11.292730000000001
   190   1      27.919011705650519      42.168475834113913      7.1900700000000004
   191   1      27.919011705650519      42.168475834113913      3.0874199999999998
   192   1      10.522086520264457      13.337623098759725      22.492730000000002
   193   1      33.221140056030791      36.203581439936109      3.0874199999999998
   194   1      31.067171175058771     0.41264551530004862      22.492730000000002
   195   1      6.0477397344250967      6.7104991345842429      3.0874199999999998
   196   1      11.349861441166979     0.74561221449962567      11.292730000000001
   197   1      11.349861441166979     0.74561221449962567      7.1900700000000004
   198   1      11.349861441166979     0.74561221449962567      3.0874199999999998
   199   1      8.6987972659768449      3.7280594115885273      11.292730000000001
   200   1      8.6987972659768449      3.7280594115885273      7.1900700000000004
   201   1      8.6987972659768449      3.7280594115885273      3.0874199999999998
   202   1      4.3908246249312617      26.593480448510256      11.292730000000001
   203   1      4.3908246249312617      26.593480448510256      7.1900700000000004
   204   1      4.3908246249312617      26.593480448510256      3.0874199999999998
   205   1      0.4142283621460589       7.041882156483009      7.1900700000000004
   206   1      0.4142283621460589       7.041882156483009      3.0874199999999998
   207   1      31.067171175058771     0.41264551530004862      18.390070000000001
   208   1      31.067171175058771     0.41264551530004862      14.287419999999999
   209   1      3.0652925373361941      4.0594349593941068      3.0874199999999998
   210   1       25.10255332232888      5.7150728294077906      22.492730000000002
   211   1       25.10255332232888      5.7150728294077906      18.390070000000001
   212   1       25.10255332232888      5.7150728294077906      14.287419999999999
   213   1      22.120234015278953      8.3662906387356557      22.492730000000002
   214   1      38.523261762772677      30.238694519851489      11.292730000000001
   215   1      38.523261762772677      30.238694519851489      7.1900700000000004
   216   1      38.523261762772677      30.238694519851489      3.0874199999999998
   217   1      28.084858511647234       3.063855850534726      22.492730000000002
   218   1      28.084858511647234       3.063855850534726      18.390070000000001
   219   1      28.084858511647234       3.063855850534726      14.287419999999999
   220   1      35.872204231220927      33.221134242847207      11.292730000000001
   221   1      35.872204231220927      33.221134242847207      7.1900700000000004
   222   1      35.872204231220927      33.221134242847207      3.0874199999999998
   223   1      33.221140056030791      36.203581439936109      11.292730000000001
   224   1      33.221140056030791      36.203581439936109      7.1900700000000004
   225   1      22.120234015278953      8.3662906387356557      14.287419999999999
   226   1      19.137928825960604      11.017507617608723      22.492730000000002
   227   1      19.137928825960604      11.017507617608723      18.390070000000001
   228   1      19.137928825960604      11.017507617608723      14.287419999999999
   229   1      0.4142283621460589       7.041882156483009      11.292730000000001
   230   1      5.7163500688879409      1.0769952363983917      11.292730000000001
   231   1      5.7163500688879409      1.0769952363983917      7.1900700000000004
   232   1      5.7163500688879409      1.0769952363983917      3.0874199999999998
   233   1      31.232842755092989      2.4025273239934615      11.292730000000001
   234   1      31.232842755092989      2.4025273239934615      7.1900700000000004
   235   1      31.232842755092989      2.4025273239934615      3.0874199999999998
   236   1      1.7397604497411256      29.575927645599158      11.292730000000001
   237   1      1.7397604497411256      29.575927645599158      7.1900700000000004
   238   1      1.7397604497411256      29.575927645599158      3.0874199999999998
   239   1      3.0652925373361941      4.0594349593941068      11.292730000000001
   240   1      3.0652925373361941      4.0594349593941068      7.1900700000000004
   241   1      13.173304329592325      16.319942405809652      18.390070000000001
   242   1      13.173304329592325      16.319942405809652      14.287419999999999
   243   1      10.190991666180786      18.971152741044332      22.492730000000002
   244   1      46.476454288343078      21.291352928584782      11.292730000000001
   245   1      46.476454288343078      21.291352928584782      7.1900700000000004
   246   1      46.476454288343078      21.291352928584782      3.0874199999999998
   247   1      43.825390113152942      24.273800125673684      11.292730000000001
   248   1      43.825390113152942      24.273800125673684      7.1900700000000004
   249   1      43.825390113152942      24.273800125673684      3.0874199999999998
   250   1      16.155616162549062        13.6687179528434      22.492730000000002
   251   1      16.155616162549062        13.6687179528434      18.390070000000001
   252   1      16.155616162549062        13.6687179528434      14.287419999999999
   253   1      41.174325937962806      27.256247322762587      11.292730000000001
   254   1      41.174325937962806      27.256247322762587      7.1900700000000004
   255   1      41.174325937962806      27.256247322762587      3.0874199999999998
   256   1      22.120234015278953      8.3662906387356557      18.390070000000001
   257   1      19.634436158181348      45.482306053101581      11.292730000000001
   258   1      19.634436158181348      45.482306053101581      7.1900700000000004
   259   1      19.634436158181348      45.482306053101581      3.0874199999999998
   260   1      13.173304329592325      16.319942405809652      22.492730000000002
   261   1    0.082845340247292371      1.4083707842039717      11.292730000000001
   262   1    0.082845340247292371      1.4083707842039717      7.1900700000000004
   263   1    0.082845340247292371      1.4083707842039717      3.0874199999999998
   264   1      28.581778579902853      5.3849745210823636      11.292730000000001
   265   1      28.581778579902853      5.3849745210823636      7.1900700000000004
   266   1      28.581778579902853      5.3849745210823636      3.0874199999999998
   267   1      39.685463322410598      46.143051600374271      22.492730000000002
   268   1      39.685463322410598      46.143051600374271      18.390070000000001
   269   1      39.685463322410598      46.143051600374271      14.287419999999999
   270   1      45.318992964695205      46.474146454457951      22.492730000000002
   271   1      45.318992964695205      46.474146454457951      18.390070000000001
   272   1      45.318992964695205      46.474146454457951      14.287419999999999
   273   1      1.2440619804941526      26.924804508118324      18.390070000000001
   274   1      1.2440619804941526      26.924804508118324      14.287419999999999
   275   1      24.936564508561617      39.517411658923777      11.292730000000001
   276   1      24.936564508561617      39.517411658923777      7.1900700000000004
   277   1      24.936564508561617      39.517411658923777      3.0874199999999998
   278   1      22.285500333371484      42.499858856012679      11.292730000000001
   279   1      22.285500333371484      42.499858856012679      7.1900700000000004
   280   1      22.285500333371484      42.499858856012679      3.0874199999999998
   281   1      4.2263671698125025      24.273587529245258      22.492730000000002
   282   1      4.2263671698125025      24.273587529245258      18.390070000000001
   283   1      4.2263671698125025      24.273587529245258      14.287419999999999
   284   1      10.190991666180786      18.971152741044332      18.390070000000001
   285   1      10.190991666180786      18.971152741044332      14.287419999999999
   286   1      7.2086864768624324      21.622369719917398      22.492730000000002
   287   1      7.2086864768624324      21.622369719917398      18.390070000000001
   288   1      7.2086864768624324      21.622369719917398      14.287419999999999
   289   1      36.700700817343382     0.74374036938372312      14.287419999999999
   290   1      33.718388153931841      3.3949507046184015      22.492730000000002
   291   1      33.718388153931841      3.3949507046184015      18.390070000000001
   292   1      27.587628683751753      36.534964461834875      11.292730000000001
   293   1      27.587628683751753      36.534964461834875      7.1900700000000004
   294   1      27.587628683751753      36.534964461834875      3.0874199999999998
   295   1      1.2440619804941526      26.924804508118324      22.492730000000002
   296   1      42.667768511728951      43.491834621501205      22.492730000000002
   297   1      42.667768511728951      43.491834621501205      18.390070000000001
   298   1      42.667768511728951      43.491834621501205      14.287419999999999
   299   1       25.93071440471272      8.3674217181712649      11.292730000000001
   300   1       25.93071440471272      8.3674217181712649      7.1900700000000004
   301   1       25.93071440471272      8.3674217181712649      3.0874199999999998
   302   1      23.279650229522584      11.349868915260167      11.292730000000001
   303   1      34.051933680125991      45.811956746290598      18.390070000000001
   304   1      34.051933680125991      45.811956746290598      14.287419999999999
   305   1      30.736076320975101      6.0461751575846545      14.287419999999999
   306   1      30.238692858941889      33.552517264745973      11.292730000000001
   307   1      30.238692858941889      33.552517264745973      7.1900700000000004
   308   1      30.238692858941889      33.552517264745973      3.0874199999999998
   309   1      45.650081175140492      40.840624286266532      22.492730000000002
   310   1      45.650081175140492      40.840624286266532      18.390070000000001
   311   1      45.650081175140492      40.840624286266532      14.287419999999999
   312   1      23.279650229522584      11.349868915260167      7.1900700000000004
   313   1      23.279650229522584      11.349868915260167      3.0874199999999998
   314   1      20.628586054332448      14.332316112349069      11.292730000000001
   315   1      20.628586054332448      14.332316112349069      7.1900700000000004
   316   1      20.628586054332448      14.332316112349069      3.0874199999999998
   317   1      37.034246343537532      43.160746411055918      22.492730000000002
   318   1      37.034246343537532      43.160746411055918      18.390070000000001
   319   1      36.700700817343382     0.74374036938372312      22.492730000000002
   320   1      36.700700817343382     0.74374036938372312      18.390070000000001
   321   1      24.771458468245207      11.348602471692397      18.390070000000001
   322   1      24.771458468245207      11.348602471692397      14.287419999999999
   323   1      21.789139161195276      13.999820281020261      22.492730000000002
   324   1      21.789139161195276      13.999820281020261      18.390070000000001
   325   1      35.540814565683775      27.587630344661356      11.292730000000001
   326   1      35.540814565683775      27.587630344661356      7.1900700000000004
   327   1      35.540814565683775      27.587630344661356      3.0874199999999998
   328   1      32.889757034132025       30.57007006765707      11.292730000000001
   329   1      32.889757034132025       30.57007006765707      7.1900700000000004
   330   1      32.889757034132025       30.57007006765707      3.0874199999999998
   331   1      27.753763657563564      8.6973854928193308      22.492730000000002
   332   1      27.753763657563564      8.6973854928193308      18.390070000000001
   333   1      27.753763657563564      8.6973854928193308      14.287419999999999
   334   1      33.718388153931841      3.3949507046184015      14.287419999999999
   335   1      30.736076320975101      6.0461751575846545      22.492730000000002
   336   1      30.736076320975101      6.0461751575846545      18.390070000000001
   337   1      18.806833971876927      16.651037259893329      14.287419999999999
   338   1      38.191878740873904      24.605183147572454      11.292730000000001
   339   1      38.191878740873904      24.605183147572454      7.1900700000000004
   340   1      38.191878740873904      24.605183147572454      3.0874199999999998
   341   1      24.771458468245207      11.348602471692397      22.492730000000002
   342   1      37.034246343537532      43.160746411055918      14.287419999999999
   343   1      34.051933680125991      45.811956746290598      22.492730000000002
   344   1      17.977528522780702      17.314755835344783      11.292730000000001
   345   1      17.977528522780702      17.314755835344783      7.1900700000000004
   346   1      17.977528522780702      17.314755835344783      3.0874199999999998
   347   1       42.99887083990582      37.858311622854991      22.492730000000002
   348   1       42.99887083990582      37.858311622854991      18.390070000000001
   349   1       42.99887083990582      37.858311622854991      14.287419999999999
   350   1      40.016558176494271      40.509521958089664      22.492730000000002
   351   1      40.016558176494271      40.509521958089664      18.390070000000001
   352   1      40.016558176494271      40.509521958089664      14.287419999999999
   353   1       40.84294291606404      21.622735950483552      3.0874199999999998
   354   1      15.824521308465387      19.302247595128005      22.492730000000002
   355   1      15.824521308465387      19.302247595128005      18.390070000000001
   356   1      15.824521308465387      19.302247595128005      14.287419999999999
   357   1      45.981176029224166      35.207094643981925      22.492730000000002