(written by ASE)

5304 atoms
3 atom types

0.0      59.321249955619216  xlo xhi
0.0      59.321249955619216  ylo yhi
0.0                      50  zlo zhi

Masses

     1       137.3269999646734 # Ba
     2      15.998999995884349 # O
     3      47.866999987686484 # Ti

Atoms # atomic

     1   1      41.538299095474358      24.359294051113494      7.1900700000000004
     2   1      41.538299095474358      24.359294051113494      3.0874199999999998
     3   1      49.054115273853974      21.675073987406488      11.292730000000001
     4   1      49.054115273853974      21.675073987406488      7.1900700000000004
     5   1      49.054115273853974      21.675073987406488      3.0874199999999998
     6   1      45.296207184664162      23.017184019259993      11.292730000000001
     7   1      45.296207184664162      23.017184019259993      7.1900700000000004
     8   1      37.780391006284553      25.701404082966995      11.292730000000001
     9   1      37.780391006284553      25.701404082966995      7.1900700000000004
    10   1      37.780391006284553      25.701404082966995      3.0874199999999998
    11   1      34.022482917094749        27.0435141148205      11.292730000000001
    12   1      34.022482917094749        27.0435141148205      7.1900700000000004
    13   1      34.022482917094749        27.0435141148205      3.0874199999999998
    14   1      56.569922034814468      18.990857287063452      11.292730000000001
    15   1      56.569922034814468      18.990857287063452      7.1900700000000004
    16   1      56.569922034814468      18.990857287063452      3.0874199999999998
    17   1      37.376813564125733      22.884504692026578      18.390070000000001
    18   1      48.650377062897391      26.911298259142143      22.492730000000002
    19   1      48.650377062897391      26.911298259142143      18.390070000000001
    20   1      48.650377062897391      26.911298259142143      14.287419999999999
    21   1      44.892519424167133      25.569034857891616      22.492730000000002
    22   1      44.892519424167133      25.569034857891616      18.390070000000001
    23   1      44.892519424167133      25.569034857891616      14.287419999999999
    24   1      41.001451719368987      58.448879442773354      11.292730000000001
    25   1      41.001451719368987      58.448879442773354      7.1900700000000004
    26   1      41.001451719368987      58.448879442773354      3.0874199999999998
    27   1      52.275175986938407      54.422549347212843      11.292730000000001
    28   1      52.275175986938407      54.422549347212843      7.1900700000000004
    29   1      52.275175986938407      54.422549347212843      3.0874199999999998
    30   1      53.617286018791916      58.180457436402641      11.292730000000001
    31   1      53.617286018791916      58.180457436402641      7.1900700000000004
    32   1      41.538299095474358      24.359294051113494      11.292730000000001
    33   1      22.345405207406905      17.515453777715614      18.390070000000001
    34   1      22.345405207406905      17.515453777715614      14.287419999999999
    35   1      18.587556986095763      16.173187013101114      22.492730000000002
    36   1      18.587556986095763      16.173187013101114      18.390070000000001
    37   1      32.143525509135877      57.375191417290544      11.292730000000001
    38   1      32.143525509135877      57.375191417290544      7.1900700000000004
    39   1      32.143525509135877      57.375191417290544      3.0874199999999998
    40   1      28.385617419946069      58.717301449144045      11.292730000000001
    41   1      28.385617419946069      58.717301449144045      7.1900700000000004
    42   1      28.385617419946069      58.717301449144045      3.0874199999999998
    43   1      29.861107704084333      20.199974526161537      22.492730000000002
    44   1      29.861107704084333      20.199974526161537      18.390070000000001
    45   1      29.861107704084333      20.199974526161537      14.287419999999999
    46   1      26.103262846137159      18.857717178966148      22.492730000000002
    47   1      26.103262846137159      18.857717178966148      18.390070000000001
    48   1      26.103262846137159      18.857717178966148      14.287419999999999
    49   1      11.071851126054364      13.488656847236074      18.390070000000001
    50   1      11.071851126054364      13.488656847236074      14.287419999999999
    51   1      7.3140029047432229      12.146390082621572      22.492730000000002
    52   1      7.3140029047432229      12.146390082621572      18.390070000000001
    53   1      7.3140029047432229      12.146390082621572      14.287419999999999
    54   1      39.659341687515486      54.690971353583542      11.292730000000001
    55   1      39.659341687515486      54.690971353583542      7.1900700000000004
    56   1      39.659341687515486      54.690971353583542      3.0874199999999998
    57   1      35.901433598325681      56.033081385437043      11.292730000000001
    58   1      35.901433598325681      56.033081385437043      7.1900700000000004
    59   1      35.901433598325681      56.033081385437043      3.0874199999999998
    60   1      18.587556986095763      16.173187013101114      14.287419999999999
    61   1      14.829699347365505      14.830923611850578      22.492730000000002
    62   1      14.829699347365505      14.830923611850578      18.390070000000001
    63   1      14.829699347365505      14.830923611850578      14.287419999999999
    64   1      22.345405207406905      17.515453777715614      22.492730000000002
    65   1      54.823816158324284      33.353676646318327      22.492730000000002
    66   1      54.823816158324284      33.353676646318327      18.390070000000001
    67   1      54.823816158324284      33.353676646318327      14.287419999999999
    68   1      47.175157865895102      52.006751289876533      7.1900700000000004
    69   1      47.175157865895102      52.006751289876533      3.0874199999999998
    70   1      43.417249776705297      53.348861321730034      11.292730000000001
    71   1      43.417249776705297      53.348861321730034      7.1900700000000004
    72   1      43.417249776705297      53.348861321730034      3.0874199999999998
    73   1      3.5561452660129658      10.804126681371038      22.492730000000002
    74   1      3.5561452660129658      10.804126681371038      18.390070000000001
    75   1      3.5561452660129658      10.804126681371038      14.287419999999999
    76   1       58.58166437963542       34.69594341093282      22.492730000000002
    77   1       58.58166437963542       34.69594341093282      18.390070000000001
    78   1       58.58166437963542       34.69594341093282      14.287419999999999
    79   1      56.166079559574811      29.595819007588069      22.492730000000002
    80   1      11.071851126054364      13.488656847236074      22.492730000000002
    81   1      39.792404438241483      27.984616314588255      18.390070000000001
    82   1      39.792404438241483      27.984616314588255      14.287419999999999
    83   1      43.550252659552626      29.326883079202752      22.492730000000002
    84   1      43.550252659552626      29.326883079202752      18.390070000000001
    85   1      43.550252659552626      29.326883079202752      14.287419999999999
    86   1      39.792404438241483      27.984616314588255      22.492730000000002
    87   1      56.703958143073379      4.3641840423819183      22.492730000000002
    88   1      56.703958143073379      4.3641840423819183      18.390070000000001
    89   1      56.703958143073379      4.3641840423819183      14.287419999999999
    90   1      47.175157865895102      52.006751289876533      11.292730000000001
    91   1      51.065958519594027      32.011413245067793      22.492730000000002
    92   1      51.065958519594027      32.011413245067793      18.390070000000001
    93   1      51.065958519594027      32.011413245067793      14.287419999999999
    94   1      47.308110298282884      30.669146480453286      22.492730000000002
    95   1      47.308110298282884      30.669146480453286      18.390070000000001
    96   1      47.308110298282884      30.669146480453286      14.287419999999999
    97   1      32.276701941564056      25.300095566142328      14.287419999999999
    98   1      28.518844302833799      23.957832164891798      22.492730000000002
    99   1      28.518844302833799      23.957832164891798      18.390070000000001
   100   1      28.518844302833799      23.957832164891798      14.287419999999999
   101   1      36.034550162875199      26.642362330756832      22.492730000000002
   102   1      36.034550162875199      26.642362330756832      18.390070000000001
   103   1      36.034550162875199      26.642362330756832      14.287419999999999
   104   1      50.933065955084906      50.664641258023032      11.292730000000001
   105   1      50.933065955084906      50.664641258023032      7.1900700000000004
   106   1      50.933065955084906      50.664641258023032      3.0874199999999998
   107   1      4.8984120306274681       7.046278460059896      22.492730000000002
   108   1      4.8984120306274681       7.046278460059896      18.390070000000001
   109   1      4.8984120306274681       7.046278460059896      14.287419999999999
   110   1      1.1405638093163275      5.7040116954453923      22.492730000000002
   111   1      1.1405638093163275      5.7040116954453923      18.390070000000001
   112   1      1.1405638093163275      5.7040116954453923      14.287419999999999
   113   1      17.245290221481259      19.931035234412253      22.492730000000002
   114   1      17.245290221481259      19.931035234412253      18.390070000000001
   115   1      17.245290221481259      19.931035234412253      14.287419999999999
   116   1      58.448882133464522       47.98042119431603      11.292730000000001
   117   1      58.448882133464522       47.98042119431603      7.1900700000000004
   118   1      58.448882133464522       47.98042119431603      3.0874199999999998
   119   1      54.690974044274711      49.322531226169531      11.292730000000001
   120   1      54.690974044274711      49.322531226169531      7.1900700000000004
   121   1      54.690974044274711      49.322531226169531      3.0874199999999998
   122   1      24.760996081522659      22.615565400277291      22.492730000000002
   123   1      24.760996081522659      22.615565400277291      18.390070000000001
   124   1      24.760996081522659      22.615565400277291      14.287419999999999
   125   1      21.003147860211516      21.273298635662783      22.492730000000002
   126   1      21.003147860211516      21.273298635662783      18.390070000000001
   127   1      32.276701941564056      25.300095566142328      22.492730000000002
   128   1      32.276701941564056      25.300095566142328      18.390070000000001
   129   1      9.7295877248038298      17.246514485966333      22.492730000000002
   130   1      9.7295877248038298      17.246514485966333      18.390070000000001
   131   1      9.7295877248038298      17.246514485966333      14.287419999999999
   132   1      23.285599298902756      56.301503391807735      11.292730000000001
   133   1      23.285599298902756      56.301503391807735      7.1900700000000004
   134   1      23.285599298902756      56.301503391807735      3.0874199999999998
   135   1      19.527700627132063       57.64361006029727      11.292730000000001
   136   1      19.527700627132063       57.64361006029727      7.1900700000000004
   137   1      19.527700627132063       57.64361006029727      3.0874199999999998
   138   1      15.769792537942259      58.985720092150771      11.292730000000001
   139   1      15.769792537942259      58.985720092150771      7.1900700000000004
   140   1      15.769792537942259      58.985720092150771      3.0874199999999998
   141   1        8.65626025193861      8.3885452246744006      22.492730000000002
   142   1        8.65626025193861      8.3885452246744006      18.390070000000001
   143   1        8.65626025193861      8.3885452246744006      14.287419999999999
   144   1      21.003147860211516      21.273298635662783      14.287419999999999
   145   1      49.723695118343493       35.76927088379805      18.390070000000001
   146   1       57.23939761502092       38.45379163224397      22.492730000000002
   147   1       57.23939761502092       38.45379163224397      18.390070000000001
   148   1       57.23939761502092       38.45379163224397      14.287419999999999
   149   1      5.9717395034926888      15.904247721351828      22.492730000000002
   150   1      5.9717395034926888      15.904247721351828      18.390070000000001
   151   1      5.9717395034926888      15.904247721351828      14.287419999999999
   152   1      2.2138818647624312      14.561984320101296      22.492730000000002
   153   1      2.2138818647624312      14.561984320101296      18.390070000000001
   154   1      2.2138818647624312      14.561984320101296      14.287419999999999
   155   1      27.043507388092564      54.959393359954234      11.292730000000001
   156   1      27.043507388092564      54.959393359954234      7.1900700000000004
   157   1      27.043507388092564      54.959393359954234      3.0874199999999998
   158   1      13.487442000170118      18.588768469797749      22.492730000000002
   159   1      13.487442000170118      18.588768469797749      18.390070000000001
   160   1      13.487442000170118      18.588768469797749      14.287419999999999
   161   1       45.96584689703235      34.427004119183543      22.492730000000002
   162   1       45.96584689703235      34.427004119183543      18.390070000000001
   163   1       45.96584689703235      34.427004119183543      14.287419999999999
   164   1      16.171962748616039      11.073065973120322      22.492730000000002
   165   1      52.946100504343121      3.0219206411313833      22.492730000000002
   166   1      52.946100504343121      3.0219206411313833      18.390070000000001
   167   1      52.946100504343121      3.0219206411313833      14.287419999999999
   168   1      49.188252283031986      1.6796538765168774      22.492730000000002
   169   1      49.188252283031986      1.6796538765168774      18.390070000000001
   170   1      30.801415477282369      53.617283328100733      11.292730000000001
   171   1      30.801415477282369      53.617283328100733      7.1900700000000004
   172   1      30.801415477282369      53.617283328100733      3.0874199999999998
   173   1      53.481549393709777      37.111524867629463      22.492730000000002
   174   1      53.481549393709777      37.111524867629463      18.390070000000001
   175   1      53.481549393709777      37.111524867629463      14.287419999999999
   176   1      49.723695118343493       35.76927088379805      22.492730000000002
   177   1      30.934435176949556      29.057943787453471      14.287419999999999
   178   1      42.207989258302092      33.084740717933009      18.390070000000001
   179   1      42.207989258302092      33.084740717933009      14.287419999999999
   180   1      38.450141036990956      31.742473953318509      22.492730000000002
   181   1      38.450141036990956      31.742473953318509      18.390070000000001
   182   1      38.450141036990956      31.742473953318509      14.287419999999999
   183   1      34.559323566472173      52.275173296247232      11.292730000000001
   184   1      34.559323566472173      52.275173296247232      7.1900700000000004
   185   1      34.559323566472173      52.275173296247232      3.0874199999999998
   186   1      16.171962748616039      11.073065973120322      18.390070000000001
   187   1      16.171962748616039      11.073065973120322      14.287419999999999
   188   1      12.414117890668868      9.7308086259249329      22.492730000000002
   189   1      12.414117890668868      9.7308086259249329      18.390070000000001
   190   1      12.414117890668868      9.7308086259249329      14.287419999999999
   191   1      42.207989258302092      33.084740717933009      22.492730000000002
   192   1      49.723695118343493       35.76927088379805      14.287419999999999
   193   1      23.418729316908156      26.373413621588433      22.492730000000002
   194   1      23.418729316908156      26.373413621588433      18.390070000000001
   195   1      27.176586955638413      27.715677022838964      22.492730000000002
   196   1      27.176586955638413      27.715677022838964      18.390070000000001
   197   1      27.176586955638413      27.715677022838964      14.287419999999999
   198   1      42.075139744851789      49.590953232540222      11.292730000000001
   199   1      42.075139744851789      49.590953232540222      7.1900700000000004
   200   1      42.075139744851789      49.590953232540222      3.0874199999999998
   201   1      38.317231655661985      50.933063264393731      11.292730000000001
   202   1      38.317231655661985      50.933063264393731      7.1900700000000004
   203   1      38.317231655661985      50.933063264393731      3.0874199999999998
   204   1      34.692292815679814      30.400207188703998      22.492730000000002
   205   1      34.692292815679814      30.400207188703998      18.390070000000001
   206   1      34.692292815679814      30.400207188703998      14.287419999999999
   207   1      30.934435176949556      29.057943787453471      22.492730000000002
   208   1      30.934435176949556      29.057943787453471      18.390070000000001
   209   1      15.903026820230725       23.68889287314251      14.287419999999999
   210   1      12.145178598919584      22.346626108528007      22.492730000000002
   211   1      12.145178598919584      22.346626108528007      18.390070000000001
   212   1      12.145178598919584      22.346626108528007      14.287419999999999
   213   1      23.418729316908156      26.373413621588433      14.287419999999999
   214   1      19.660884458960982      25.031156274393044      22.492730000000002
   215   1      19.660884458960982      25.031156274393044      18.390070000000001
   216   1      19.660884458960982      25.031156274393044      14.287419999999999
   217   1      49.590955923231405       46.90673316883322      7.1900700000000004
   218   1      49.590955923231405       46.90673316883322      3.0874199999999998
   219   1      45.833047834041601      48.248843200686721      11.292730000000001
   220   1      45.833047834041601      48.248843200686721      7.1900700000000004
   221   1      45.833047834041601      48.248843200686721      3.0874199999999998
   222   1      19.929820387346297      12.415329374370856      22.492730000000002
   223   1      19.929820387346297      12.415329374370856      18.390070000000001
   224   1      19.929820387346297      12.415329374370856      14.287419999999999
   225   1      55.897134213770386      42.211649270974227      14.287419999999999
   226   1       4.629472738878186      19.662095942662969      22.492730000000002
   227   1       4.629472738878186      19.662095942662969      18.390070000000001
   228   1       4.629472738878186      19.662095942662969      14.287419999999999
   229   1     0.87161510014792765      18.319832541412435      22.492730000000002
   230   1     0.87161510014792765      18.319832541412435      18.390070000000001
   231   1     0.87161510014792765      18.319832541412435      14.287419999999999
   232   1       53.34886401242121      45.564623136979719      11.292730000000001
   233   1       53.34886401242121      45.564623136979719      7.1900700000000004
   234   1       53.34886401242121      45.564623136979719      3.0874199999999998
   235   1      49.590955923231405       46.90673316883322      11.292730000000001
   236   1      8.3873209601893262      21.004362707277473      22.492730000000002
   237   1      8.3873209601893262      21.004362707277473      18.390070000000001
   238   1      8.3873209601893262      21.004362707277473      14.287419999999999
   239   1      15.903026820230725       23.68889287314251      22.492730000000002
   240   1      15.903026820230725       23.68889287314251      18.390070000000001
   241   1      40.865731911106707      36.842585575880186      14.287419999999999
   242   1      52.139285992459243       40.86938250635972      14.287419999999999
   243   1      48.381437771148107       39.52711574174522      22.492730000000002
   244   1      48.381437771148107       39.52711574174522      18.390070000000001
   245   1      48.381437771148107       39.52711574174522      14.287419999999999
   246   1      45.430394644301721     0.33739047526635013      22.492730000000002
   247   1      45.430394644301721     0.33739047526635013      18.390070000000001
   248   1      45.430394644301721     0.33739047526635013      14.287419999999999
   249   1      57.106772101611014      44.222513105126218      3.0874199999999998
   250   1      23.687668608657436      13.757596138985358      22.492730000000002
   251   1      23.687668608657436      13.757596138985358      18.390070000000001
   252   1      23.687668608657436      13.757596138985358      14.287419999999999
   253   1      52.139285992459243       40.86938250635972      22.492730000000002
   254   1      52.139285992459243       40.86938250635972      18.390070000000001
   255   1      55.897134213770386      42.211649270974227      22.492730000000002
   256   1      55.897134213770386      42.211649270974227      18.390070000000001
   257   1      31.203374468698836      16.442126304850397      22.492730000000002
   258   1      37.107874272376449      35.500322174629645      22.492730000000002
   259   1      37.107874272376449      35.500322174629645      18.390070000000001
   260   1      37.107874272376449      35.500322174629645      14.287419999999999
   261   1      6.9118663277091423      57.912032066667983      3.0874199999999998
   262   1      3.1539582385193365      59.254142098521484      11.292730000000001
   263   1      3.1539582385193365      59.254142098521484      7.1900700000000004
   264   1      3.1539582385193365      59.254142098521484      3.0874199999999998
   265   1      57.106772101611014      44.222513105126218      11.292730000000001
   266   1      57.106772101611014      44.222513105126218      7.1900700000000004
   267   1      49.188252283031986      1.6796538765168774      14.287419999999999
   268   1      44.623580132417842      38.184852340494686      22.492730000000002
   269   1      44.623580132417842      38.184852340494686      18.390070000000001
   270   1      44.623580132417842      38.184852340494686      14.287419999999999
   271   1      40.865731911106707      36.842585575880186      22.492730000000002
   272   1      40.865731911106707      36.842585575880186      18.390070000000001
   273   1      27.445526247387694      15.099859540235892      22.492730000000002
   274   1      27.445526247387694      15.099859540235892      18.390070000000001
   275   1      27.445526247387694      15.099859540235892      14.287419999999999
   276   1      14.427682506088757      55.227812002960974      7.1900700000000004
   277   1      14.427682506088757      55.227812002960974      3.0874199999999998
   278   1      10.669774416898949      56.569922034814475      11.292730000000001
   279   1      10.669774416898949      56.569922034814475      7.1900700000000004
   280   1      10.669774416898949      56.569922034814475      3.0874199999999998
   281   1      6.9118663277091423      57.912032066667983      11.292730000000001
   282   1      6.9118663277091423      57.912032066667983      7.1900700000000004
   283   1      33.350029414429279      34.158064827434259      22.492730000000002
   284   1      33.350029414429279      34.158064827434259      18.390070000000001
   285   1      33.350029414429279      34.158064827434259      14.287419999999999
   286   1      29.592171775699022      32.815801426183725      22.492730000000002
   287   1      29.592171775699022      32.815801426183725      18.390070000000001
   288   1      29.592171775699022      32.815801426183725      14.287419999999999
   289   1      18.318617694346479      28.789004495704184      22.492730000000002
   290   1      18.318617694346479      28.789004495704184      18.390070000000001
   291   1      18.318617694346479      28.789004495704184      14.287419999999999
   292   1      14.560760055616221      27.446741094453653      22.492730000000002
   293   1      18.185590595278562      53.885701971107473      11.292730000000001
   294   1      18.185590595278562      53.885701971107473      7.1900700000000004
   295   1      18.185590595278562      53.885701971107473      3.0874199999999998
   296   1      14.427682506088757      55.227812002960974      11.292730000000001
   297   1      25.834323554387879      31.473534661569222      22.492730000000002
   298   1      25.834323554387879      31.473534661569222      18.390070000000001
   299   1      25.834323554387879      31.473534661569222      14.287419999999999
   300   1      22.076465915657622      30.131271260318695      22.492730000000002
   301   1      22.076465915657622      30.131271260318695      18.390070000000001
   302   1      22.076465915657622      30.131271260318695      14.287419999999999
   303   1      31.203374468698836      16.442126304850397      18.390070000000001
   304   1      31.203374468698836      16.442126304850397      14.287419999999999
   305   1      3.2872093376276519      23.419953581393226      18.390070000000001
   306   1      3.2872093376276519      23.419953581393226      14.287419999999999
   307   1      34.961232107429097      17.784389706100928      22.492730000000002
   308   1      34.961232107429097      17.784389706100928      18.390070000000001
   309   1      34.961232107429097      17.784389706100928      14.287419999999999
   310   1      25.701397356239063      51.201485270764437      11.292730000000001
   311   1      25.701397356239063      51.201485270764437      7.1900700000000004
   312   1      25.701397356239063      51.201485270764437      3.0874199999999998
   313   1      21.943489267049255      52.543595302617938      11.292730000000001
   314   1      21.943489267049255      52.543595302617938      7.1900700000000004
   315   1      21.943489267049255      52.543595302617938      3.0874199999999998
   316   1      14.560760055616221      27.446741094453653      18.390070000000001
   317   1      14.560760055616221      27.446741094453653      14.287419999999999
   318   1       10.80291183430508      26.104474329839146      22.492730000000002
   319   1       10.80291183430508      26.104474329839146      18.390070000000001
   320   1       10.80291183430508      26.104474329839146      14.287419999999999
   321   1      54.554876866574993       45.96949412892139      14.287419999999999
   322   1      50.797019227844743      44.627230727670863      22.492730000000002
   323   1      50.797019227844743      44.627230727670863      18.390070000000001
   324   1      50.797019227844743      44.627230727670863      14.287419999999999
   325   1      58.312725087886143      47.311760893535904      22.492730000000002
   326   1      58.312725087886143      47.311760893535904      18.390070000000001
   327   1      58.312725087886143      47.311760893535904      14.287419999999999
   328   1      54.554876866574993       45.96949412892139      22.492730000000002
   329   1      54.554876866574993       45.96949412892139      18.390070000000001
   330   1      29.459305445428868      49.859375238910935      11.292730000000001
   331   1      29.459305445428868      49.859375238910935      7.1900700000000004
   332   1      29.459305445428868      49.859375238910935      3.0874199999999998
   333   1      7.0450541955748234      24.762210928588612      22.492730000000002
   334   1      7.0450541955748234      24.762210928588612      18.390070000000001
   335   1      7.0450541955748234      24.762210928588612      14.287419999999999
   336   1      3.2872093376276519      23.419953581393226      22.492730000000002
   337   1      35.765610871125915      39.258179813359902      18.390070000000001
   338   1      39.523468509856173      40.600443214610443      22.492730000000002
   339   1      39.523468509856173      40.600443214610443      18.390070000000001
   340   1      39.523468509856173      40.600443214610443      14.287419999999999
   341   1      59.119539599770022      9.4642990283075648      22.492730000000002
   342   1      59.119539599770022      9.4642990283075648      18.390070000000001
   343   1      59.119539599770022      9.4642990283075648      14.287419999999999
   344   1      33.217213534618672      48.517265207057434      11.292730000000001
   345   1      33.217213534618672      48.517265207057434      7.1900700000000004
   346   1      33.217213534618672      48.517265207057434      3.0874199999999998
   347   1        47.0391710065336      43.284963963056363      22.492730000000002
   348   1        47.0391710065336      43.284963963056363      18.390070000000001
   349   1        47.0391710065336      43.284963963056363      14.287419999999999
   350   1      43.281316731167315      41.942709979224936      22.492730000000002
   351   1      43.281316731167315      41.942709979224936      18.390070000000001
   352   1      43.281316731167315      41.942709979224936      14.287419999999999
   353   1      28.249905011084515      36.573649647494868      18.390070000000001
   354   1      28.249905011084515      36.573649647494868      14.287419999999999
   355   1      24.492056789773375      35.231382882880361      22.492730000000002
   356   1      24.492056789773375      35.231382882880361      18.390070000000001
   357   1      24.492056789773375      35.231382882880361      14.287419999999999