(written by ASE)

6648 atoms
3 atom types

0.0       66.41314413851579  xlo xhi
0.0       66.41314413851579  ylo yhi
0.0                      50  zlo zhi

Masses

     1       137.3269999646734 # Ba
     2      15.998999995884349 # O
     3      47.866999987686484 # Ti

Atoms # atomic

     1   1      62.157432405080407      60.119481073222509      7.1900700000000004
     2   1      62.157432405080407      60.119481073222509      3.0874199999999998
     3   1      65.514045757868729      62.277303942872159      11.292730000000001
     4   1      65.514045757868729      62.277303942872159      7.1900700000000004
     5   1      65.514045757868729      62.277303942872159      3.0874199999999998
     6   1      63.356217480643174      65.633925707445258      11.292730000000001
     7   1      50.049335186397528       35.42473899953152      22.492730000000002
     8   1      50.049335186397528       35.42473899953152      18.390070000000001
     9   1      50.049335186397528       35.42473899953152      14.287419999999999
    10   1       39.38035073790136      21.758097889886223      11.292730000000001
    11   1       39.38035073790136      21.758097889886223      7.1900700000000004
    12   1       39.38035073790136      21.758097889886223      3.0874199999999998
    13   1      37.222527868251717      25.114711242674559      11.292730000000001
    14   1      37.222527868251717      25.114711242674559      7.1900700000000004
    15   1      37.222527868251717      25.114711242674559      3.0874199999999998
    16   1      35.064699591026155      28.471333007247651      11.292730000000001
    17   1      18.281599179945452      17.682197028695771      7.1900700000000004
    18   1      18.281599179945452      17.682197028695771      3.0874199999999998
    19   1      24.755078604046215      7.6123401467612508      11.292730000000001
    20   1      24.755078604046215      7.6123401467612508      7.1900700000000004
    21   1      24.755078604046215      7.6123401467612508      3.0874199999999998
    22   1      22.597250326820657      10.968961911334342      11.292730000000001
    23   1      26.912906881271773      4.2557183821881592      11.292730000000001
    24   1      54.485154086056177      64.674896325143138      11.292730000000001
    25   1      54.485154086056177      64.674896325143138      7.1900700000000004
    26   1      54.485154086056177      64.674896325143138      3.0874199999999998
    27   1      5.2147267350283899      2.5774471554583118      22.492730000000002
    28   1      5.2147267350283899      2.5774471554583118      18.390070000000001
    29   1      5.2147267350283899      2.5774471554583118      14.287419999999999
    30   1      8.5713731341139745     0.41964351274524575      22.492730000000002
    31   1      63.356217480643174      65.633925707445258      7.1900700000000004
    32   1      62.157432405080407      60.119481073222509      11.292730000000001
    33   1      11.808114348268777      27.752062322415046      3.0874199999999998
    34   1       1.978007752019012       35.66409933890877      11.292730000000001
    35   1       1.978007752019012       35.66409933890877      7.1900700000000004
    36   1       1.978007752019012       35.66409933890877      3.0874199999999998
    37   1      4.0158893862317839       8.091888785472209      22.492730000000002
    38   1      60.958638917732856      54.605031031423863      11.292730000000001
    39   1      60.958638917732856      54.605031031423863      7.1900700000000004
    40   1      60.958638917732856      54.605031031423863      3.0874199999999998
    41   1      58.800810640507301      57.961652795996955      11.292730000000001
    42   1      10.729168365042286      3.7762845042549174      22.492730000000002
    43   1      10.729168365042286      3.7762845042549174      18.390070000000001
    44   1      10.729168365042286      3.7762845042549174      14.287419999999999
    45   1      58.800810640507301      57.961652795996955      7.1900700000000004
    46   1      58.800810640507301      57.961652795996955      3.0874199999999998
    47   1      56.642982363281739      61.318274560570046      11.292730000000001
    48   1      56.642982363281739      61.318274560570046      7.1900700000000004
    49   1      6.2936643064701299      28.950855809762583      7.1900700000000004
    50   1      6.2936643064701299      28.950855809762583      3.0874199999999998
    51   1     0.65925680650686713      10.249689423976433      22.492730000000002
    52   1     0.65925680650686713      10.249689423976433      18.390070000000001
    53   1     0.65925680650686713      10.249689423976433      14.287419999999999
    54   1       63.11646719495841      51.248409266850771      11.292730000000001
    55   1       63.11646719495841      51.248409266850771      7.1900700000000004
    56   1       63.11646719495841      51.248409266850771      3.0874199999999998
    57   1      7.3725357853173694      5.9340851427591428      22.492730000000002
    58   1      7.3725357853173694      5.9340851427591428      18.390070000000001
    59   1      7.3725357853173694      5.9340851427591428      14.287419999999999
    60   1      29.070735158497335     0.89909661761506743      3.0874199999999998
    61   1      13.965942625494336      24.395440557841955      7.1900700000000004
    62   1      13.965942625494336      24.395440557841955      3.0874199999999998
    63   1      11.808114348268777      27.752062322415046      11.292730000000001
    64   1      11.808114348268777      27.752062322415046      7.1900700000000004
    65   1      65.274295472183979       47.89178750227768      7.1900700000000004
    66   1      65.274295472183979       47.89178750227768      3.0874199999999998
    67   1       22.95688897386669     0.65951757183423343      22.492730000000002
    68   1       22.95688897386669     0.65951757183423343      18.390070000000001
    69   1       22.95688897386669     0.65951757183423343      14.287419999999999
    70   1      4.0158893862317839       8.091888785472209      18.390070000000001
    71   1      4.0158893862317839       8.091888785472209      14.287419999999999
    72   1      4.1358360292445715      32.307477574335671      11.292730000000001
    73   1      4.1358360292445715      32.307477574335671      7.1900700000000004
    74   1      4.1358360292445715      32.307477574335671      3.0874199999999998
    75   1       9.650286071043217      31.108684086988141      11.292730000000001
    76   1       9.650286071043217      31.108684086988141      7.1900700000000004
    77   1       9.650286071043217      31.108684086988141      3.0874199999999998
    78   1      8.4514925836956891      25.594234045189491      7.1900700000000004
    79   1      8.4514925836956891      25.594234045189491      3.0874199999999998
    80   1      6.2936643064701299      28.950855809762583      11.292730000000001
    81   1      10.609320860921247        22.2376122806164      7.1900700000000004
    82   1      10.609320860921247        22.2376122806164      3.0874199999999998
    83   1      8.4514925836956891      25.594234045189491      11.292730000000001
    84   1      53.286360598708661      59.160446283344491      11.292730000000001
    85   1      53.286360598708661      59.160446283344491      7.1900700000000004
    86   1      53.286360598708661      59.160446283344491      3.0874199999999998
    87   1        51.1285323214831      62.517068047917583      11.292730000000001
    88   1        51.1285323214831      62.517068047917583      7.1900700000000004
    89   1        51.1285323214831      62.517068047917583      3.0874199999999998
    90   1      48.970704044257545      65.873689812490682      11.292730000000001
    91   1      19.600242574781102      2.8173212145472979      22.492730000000002
    92   1      19.600242574781102      2.8173212145472979      18.390070000000001
    93   1      19.600242574781102      2.8173212145472979      14.287419999999999
    94   1      48.970704044257545      65.873689812490682      7.1900700000000004
    95   1      48.970704044257545      65.873689812490682      3.0874199999999998
    96   1      65.274295472183979       47.89178750227768      11.292730000000001
    97   1      17.082805692597923      12.167746986897123      7.1900700000000004
    98   1      17.082805692597923      12.167746986897123      3.0874199999999998
    99   1      9.5303310162456807      9.2907261342688141      22.492730000000002
   100   1      9.5303310162456807      9.2907261342688141      18.390070000000001
   101   1      9.5303310162456807      9.2907261342688141      14.287419999999999
   102   1      55.444188875934223        55.8038245187714      11.292730000000001
   103   1      55.444188875934223        55.8038245187714      7.1900700000000004
   104   1      55.444188875934223        55.8038245187714      3.0874199999999998
   105   1      16.243609995056183      4.9751218530515224      22.492730000000002
   106   1      16.243609995056183      4.9751218530515224      18.390070000000001
   107   1      16.243609995056183      4.9751218530515224      14.287419999999999
   108   1      7.4924577938176595      34.465305851561233      11.292730000000001
   109   1      7.4924577938176595      34.465305851561233      7.1900700000000004
   110   1      7.4924577938176595      34.465305851561233      3.0874199999999998
   111   1      5.3346295165921003      37.821927616134325      11.292730000000001
   112   1      10.609320860921247        22.2376122806164      11.292730000000001
   113   1      57.602017153159778      52.447202754198308      7.1900700000000004
   114   1      57.602017153159778      52.447202754198308      3.0874199999999998
   115   1      6.1736984365207634       11.44852677277304      22.492730000000002
   116   1      6.1736984365207634       11.44852677277304      18.390070000000001
   117   1      6.1736984365207634       11.44852677277304      14.287419999999999
   118   1      12.886969003546511      7.1329170839798346      22.492730000000002
   119   1      12.886969003546511      7.1329170839798346      18.390070000000001
   120   1      12.886969003546511      7.1329170839798346      14.287419999999999
   121   1      5.3346295165921003      37.821927616134325      7.1900700000000004
   122   1      5.3346295165921003      37.821927616134325      3.0874199999999998
   123   1      3.1768012393665401      41.178549380707416      11.292730000000001
   124   1      3.1768012393665401      41.178549380707416      7.1900700000000004
   125   1      3.1768012393665401      41.178549380707416      3.0874199999999998
   126   1      12.767149138146806      18.880990516043308      11.292730000000001
   127   1      12.767149138146806      18.880990516043308      7.1900700000000004
   128   1      12.767149138146806      18.880990516043308      3.0874199999999998
   129   1      59.759845430385333      49.090580989625217      7.1900700000000004
   130   1      59.759845430385333      49.090580989625217      3.0874199999999998
   131   1      2.8170574450110921      13.606322003701353      22.492730000000002
   132   1      2.8170574450110921      13.606322003701353      18.390070000000001
   133   1      2.8170574450110921      13.606322003701353      14.287419999999999
   134   1      14.924977415372364      15.524368751470215      11.292730000000001
   135   1      14.924977415372364      15.524368751470215      7.1900700000000004
   136   1      14.924977415372364      15.524368751470215      3.0874199999999998
   137   1      1.0189729621409844      44.535171145280501      11.292730000000001
   138   1      1.0189729621409844      44.535171145280501      7.1900700000000004
   139   1      1.0189729621409844      44.535171145280501      3.0874199999999998
   140   1      19.240628562247569      8.8111336341087849      11.292730000000001
   141   1      19.240628562247569      8.8111336341087849      7.1900700000000004
   142   1      19.240628562247569      8.8111336341087849      3.0874199999999998
   143   1      17.082805692597923      12.167746986897123      11.292730000000001
   144   1      57.602017153159778      52.447202754198308      11.292730000000001
   145   1      21.398456839473127      5.4545118695356942      11.292730000000001
   146   1      21.398456839473127      5.4545118695356942      7.1900700000000004
   147   1      21.398456839473127      5.4545118695356942      3.0874199999999998
   148   1       64.07550198483645      42.377337460479033      11.292730000000001
   149   1       64.07550198483645      42.377337460479033      7.1900700000000004
   150   1       64.07550198483645      42.377337460479033      3.0874199999999998
   151   1       28.47132219209583      1.8583495130549244      22.492730000000002
   152   1       28.47132219209583      1.8583495130549244      18.390070000000001
   153   1       28.47132219209583      1.8583495130549244      14.287419999999999
   154   1      25.114684204794997       4.016158563343903      22.492730000000002
   155   1      25.114684204794997       4.016158563343903      18.390070000000001
   156   1      25.114684204794997       4.016158563343903      14.287419999999999
   157   1      61.917673707610895      45.733959225052125      11.292730000000001
   158   1      61.917673707610895      45.733959225052125      7.1900700000000004
   159   1      61.917673707610895      45.733959225052125      3.0874199999999998
   160   1      59.759845430385333      49.090580989625217      11.292730000000001
   161   1     0.77921426467147659      30.149649297110113      3.0874199999999998
   162   1       28.11170036861931      9.7701684239868118      11.292730000000001
   163   1      18.401410633560406      8.3317544327764406      18.390070000000001
   164   1      18.401410633560406      8.3317544327764406      14.287419999999999
   165   1      45.614082279684453      63.715861535265113      11.292730000000001
   166   1      45.614082279684453      63.715861535265113      7.1900700000000004
   167   1      45.614082279684453      63.715861535265113      3.0874199999999998
   168   1      66.233324854486099      39.020724107690697      11.292730000000001
   169   1      66.233324854486099      39.020724107690697      7.1900700000000004
   170   1      66.233324854486099      39.020724107690697      3.0874199999999998
   171   1      21.758051625070081      6.1739592018481293      22.492730000000002
   172   1      21.758051625070081      6.1739592018481293      18.390070000000001
   173   1      21.758051625070081      6.1739592018481293      14.287419999999999
   174   1      32.427356923070427      3.0569248948406273      11.292730000000001
   175   1      32.427356923070427      3.0569248948406273      7.1900700000000004
   176   1      32.427356923070427      3.0569248948406273      3.0874199999999998
   177   1      47.771910556910008      60.359239770692021      3.0874199999999998
   178   1      15.044772646259577      10.489563483065417      22.492730000000002
   179   1      15.044772646259577      10.489563483065417      18.390070000000001
   180   1      15.044772646259577      10.489563483065417      14.287419999999999
   181   1      11.688131654749908      12.647358713993734      22.492730000000002
   182   1      11.688131654749908      12.647358713993734      18.390070000000001
   183   1      11.688131654749908      12.647358713993734      14.287419999999999
   184   1      18.401410633560406      8.3317544327764406      22.492730000000002
   185   1      23.556285116698685      2.0978901049626026      11.292730000000001
   186   1      23.556285116698685      2.0978901049626026      7.1900700000000004
   187   1      23.556285116698685      2.0978901049626026      3.0874199999999998
   188   1      30.269528645844868      6.4135466594137194      11.292730000000001
   189   1      30.269528645844868      6.4135466594137194      7.1900700000000004
   190   1      30.269528645844868      6.4135466594137194      3.0874199999999998
   191   1     0.77921426467147659      30.149649297110113      11.292730000000001
   192   1     0.77921426467147659      30.149649297110113      7.1900700000000004
   193   1      2.9370425418970343      26.793027532537025      3.0874199999999998
   194   1      25.953872091393752      13.126790188559902      11.292730000000001
   195   1      25.953872091393752      13.126790188559902      7.1900700000000004
   196   1      25.953872091393752      13.126790188559902      3.0874199999999998
   197   1       1.618220096214487      19.120763633715249      18.390070000000001
   198   1      52.087567111361132      53.645996241545838      11.292730000000001
   199   1      52.087567111361132      53.645996241545838      7.1900700000000004
   200   1      52.087567111361132      53.645996241545838      3.0874199999999998
   201   1       8.331499075024988      14.805159352497958      22.492730000000002
   202   1       8.331499075024988      14.805159352497958      18.390070000000001
   203   1       8.331499075024988      14.805159352497958      14.287419999999999
   204   1       49.92973883413557      57.002618006118929      11.292730000000001
   205   1       49.92973883413557      57.002618006118929      7.1900700000000004
   206   1       49.92973883413557      57.002618006118929      3.0874199999999998
   207   1      47.771910556910008      60.359239770692021      11.292730000000001
   208   1      47.771910556910008      60.359239770692021      7.1900700000000004
   209   1      9.4105273735737107      16.723162238817746      7.1900700000000004
   210   1      9.4105273735737107      16.723162238817746      3.0874199999999998
   211   1      54.245395388586687      50.289374476972746      11.292730000000001
   212   1      54.245395388586687      50.289374476972746      7.1900700000000004
   213   1      54.245395388586687      50.289374476972746      3.0874199999999998
   214   1      4.9748526759394043      16.962962995211022      22.492730000000002
   215   1      4.9748526759394043      16.962962995211022      18.390070000000001
   216   1      4.9748526759394043      16.962962995211022      14.287419999999999
   217   1       1.618220096214487      19.120763633715249      22.492730000000002
   218   1       28.11170036861931      9.7701684239868118      7.1900700000000004
   219   1       28.11170036861931      9.7701684239868118      3.0874199999999998
   220   1       5.094870819122594      23.436405767963929      11.292730000000001
   221   1       5.094870819122594      23.436405767963929      7.1900700000000004
   222   1       5.094870819122594      23.436405767963929      3.0874199999999998
   223   1      2.9370425418970343      26.793027532537025      11.292730000000001
   224   1      2.9370425418970343      26.793027532537025      7.1900700000000004
   225   1      56.403223665812241      46.932752712399655      7.1900700000000004
   226   1      56.403223665812241      46.932752712399655      3.0874199999999998
   227   1      37.342404813619396     0.89939163092321872      22.492730000000002
   228   1      37.342404813619396     0.89939163092321872      18.390070000000001
   229   1      37.342404813619396     0.89939163092321872      14.287419999999999
   230   1      33.985763822109725      3.0571868618515312      22.492730000000002
   231   1      33.985763822109725      3.0571868618515312      18.390070000000001
   232   1      33.985763822109725      3.0571868618515312      14.287419999999999
   233   1       1.618220096214487      19.120763633715249      14.287419999999999
   234   1      23.796049221744106      16.483403541348242      11.292730000000001
   235   1      23.796049221744106      16.483403541348242      7.1900700000000004
   236   1      23.796049221744106      16.483403541348242      3.0874199999999998
   237   1      7.2526990963481524      20.079784003390838      11.292730000000001
   238   1      7.2526990963481524      20.079784003390838      7.1900700000000004
   239   1      7.2526990963481524      20.079784003390838      3.0874199999999998
   240   1      9.4105273735737107      16.723162238817746      11.292730000000001
   241   1      13.726183928024829      10.009918709671563      3.0874199999999998
   242   1      11.568355650799269      13.366540474244655      11.292730000000001
   243   1      11.568355650799269      13.366540474244655      7.1900700000000004
   244   1      11.568355650799269      13.366540474244655      3.0874199999999998
   245   1      19.480392667292989      23.196647070494425      11.292730000000001
   246   1      27.272484843299221      7.3727911430688211      14.287419999999999
   247   1      60.718880220263365      40.219509183253471      11.292730000000001
   248   1      60.718880220263365      40.219509183253471      7.1900700000000004
   249   1      60.718880220263365      40.219509183253471      3.0874199999999998
   250   1      30.629125834808896      5.2149959121405098      22.492730000000002
   251   1      30.629125834808896      5.2149959121405098      18.390070000000001
   252   1      30.629125834808896      5.2149959121405098      14.287419999999999
   253   1      58.561051943037803      43.576130947826563      11.292730000000001
   254   1      58.561051943037803      43.576130947826563      7.1900700000000004
   255   1      58.561051943037803      43.576130947826563      3.0874199999999998
   256   1      56.403223665812241      46.932752712399655      11.292730000000001
   257   1      62.876703089913008      36.862895830465135      11.292730000000001
   258   1      62.876703089913008      36.862895830465135      7.1900700000000004
   259   1      62.876703089913008      36.862895830465135      3.0874199999999998
   260   1      23.915852263574308      9.5305917815730457      22.492730000000002
   261   1      23.915852263574308      9.5305917815730457      18.390070000000001
   262   1      23.915852263574308      9.5305917815730457      14.287419999999999
   263   1      20.559214276273476      11.688400831862026      22.492730000000002
   264   1      20.559214276273476      11.688400831862026      18.390070000000001
   265   1      20.559214276273476      11.688400831862026      14.287419999999999
   266   1      27.272484843299221      7.3727911430688211      22.492730000000002
   267   1      27.272484843299221      7.3727911430688211      18.390070000000001
   268   1      21.638220944518547      19.840025305921333      11.292730000000001
   269   1      21.638220944518547      19.840025305921333      7.1900700000000004
   270   1      21.638220944518547      19.840025305921333      3.0874199999999998
   271   1      13.726183928024829      10.009918709671563      11.292730000000001
   272   1      13.726183928024829      10.009918709671563      7.1900700000000004
   273   1        40.0996322378858      64.914655022612649      7.1900700000000004
   274   1        40.0996322378858      64.914655022612649      3.0874199999999998
   275   1       65.03453136713857      33.506274065892043      11.292730000000001
   276   1       65.03453136713857      33.506274065892043      7.1900700000000004
   277   1       65.03453136713857      33.506274065892043      3.0874199999999998
   278   1      17.202573284763805      13.846196062790339      22.492730000000002
   279   1      17.202573284763805      13.846196062790339      18.390070000000001
   280   1      17.202573284763805      13.846196062790339      14.287419999999999
   281   1      19.480392667292989      23.196647070494425      7.1900700000000004
   282   1      19.480392667292989      23.196647070494425      3.0874199999999998
   283   1      15.884006797674475      6.6533053568832257      11.292730000000001
   284   1      15.884006797674475      6.6533053568832257      7.1900700000000004
   285   1      15.884006797674475      6.6533053568832257      3.0874199999999998
   286   1      18.041835074900032      3.2966835923101341      11.292730000000001
   287   1      18.041835074900032      3.2966835923101341      7.1900700000000004
   288   1      18.041835074900032      3.2966835923101341      3.0874199999999998
   289   1      7.1326617262283829      20.319600982511854      22.492730000000002
   290   1      7.1326617262283829      20.319600982511854      18.390070000000001
   291   1      7.1326617262283829      20.319600982511854      14.287419999999999
   292   1      13.845940705038885      16.003996701294561      22.492730000000002
   293   1      13.845940705038885      16.003996701294561      18.390070000000001
   294   1      13.845940705038885      16.003996701294561      14.287419999999999
   295   1      17.322564390067431      26.553268835067517      11.292730000000001
   296   1      17.322564390067431      26.553268835067517      7.1900700000000004
   297   1      17.322564390067431      26.553268835067517      3.0874199999999998
   298   1      15.164736112841872      29.909890599640608      11.292730000000001
   299   1      15.164736112841872      29.909890599640608      7.1900700000000004
   300   1      15.164736112841872      29.909890599640608      3.0874199999999998
   301   1      3.8960773317750621       17.92195572616528      11.292730000000001
   302   1      3.8960773317750621       17.92195572616528      7.1900700000000004
   303   1      3.8960773317750621       17.92195572616528      3.0874199999999998
   304   1        40.0996322378858      64.914655022612649      11.292730000000001
   305   1      6.0539056090006209       14.56533396159219      3.0874199999999998
   306   1      46.573117069562478      54.844789728893375      3.0874199999999998
   307   1      44.415288792336916      58.201411493466466      11.292730000000001
   308   1      3.7760153271427983      22.477404625224921      22.492730000000002
   309   1      3.7760153271427983      22.477404625224921      18.390070000000001
   310   1      3.7760153271427983      22.477404625224921      14.287419999999999
   311   1      0.4193827474178819      24.635205263729144      22.492730000000002
   312   1      0.4193827474178819      24.635205263729144      18.390070000000001
   313   1      44.415288792336916      58.201411493466466      7.1900700000000004
   314   1      44.415288792336916      58.201411493466466      3.0874199999999998
   315   1      42.257460515111362      61.558033258039558      11.292730000000001
   316   1      42.257460515111362      61.558033258039558      7.1900700000000004
   317   1      42.257460515111362      61.558033258039558      3.0874199999999998
   318   1      10.489294305953301      18.161800344007631      22.492730000000002
   319   1      10.489294305953301      18.161800344007631      18.390070000000001
   320   1      10.489294305953301      18.161800344007631      14.287419999999999
   321   1       42.85683803184854      2.0982235721439095      18.390070000000001
   322   1       42.85683803184854      2.0982235721439095      14.287419999999999
   323   1       48.73094534678804      51.488167964320283      11.292730000000001
   324   1       48.73094534678804      51.488167964320283      7.1900700000000004
   325   1       48.73094534678804      51.488167964320283      3.0874199999999998
   326   1      0.4193827474178819      24.635205263729144      14.287419999999999
   327   1      46.573117069562478      54.844789728893375      11.292730000000001
   328   1      46.573117069562478      54.844789728893375      7.1900700000000004
   329   1      1.7382490545495044      21.278577490738371      11.292730000000001
   330   1      1.7382490545495044      21.278577490738371      7.1900700000000004
   331   1      1.7382490545495044      21.278577490738371      3.0874199999999998
   332   1      13.006907835616312      33.266512364213703      11.292730000000001
   333   1      13.006907835616312      33.266512364213703      7.1900700000000004
   334   1      13.006907835616312      33.266512364213703      3.0874199999999998
   335   1      6.0539056090006209       14.56533396159219      11.292730000000001
   336   1      6.0539056090006209       14.56533396159219      7.1900700000000004
   337   1      50.888773624013595      48.131546199747191      11.292730000000001
   338   1      50.888773624013595      48.131546199747191      7.1900700000000004
   339   1      50.888773624013595      48.131546199747191      3.0874199999999998
   340   1      39.500205452123623      4.2560242106481345      22.492730000000002
   341   1      39.500205452123623      4.2560242106481345      18.390070000000001
   342   1      39.500205452123623      4.2560242106481345      14.287419999999999
   343   1       42.85683803184854      2.0982235721439095      22.492730000000002
   344   1      10.849079558390756      36.623134128786788      11.292730000000001
   345   1      10.849079558390756      36.623134128786788      7.1900700000000004
   346   1      10.849079558390756      36.623134128786788      3.0874199999999998
   347   1      8.2117338862261793      11.208712197019096      11.292730000000001
   348   1      8.2117338862261793      11.208712197019096      7.1900700000000004
   349   1      8.2117338862261793      11.208712197019096      3.0874199999999998
   350   1      8.6912512811651954      39.979755893359886      11.292730000000001
   351   1      8.6912512811651954      39.979755893359886      7.1900700000000004
   352   1      8.6912512811651954      39.979755893359886      3.0874199999999998
   353   1      32.786926473313116      8.5716284918654271      22.492730000000002
   354   1      32.786926473313116      8.5716284918654271      18.390070000000001
   355   1      32.786926473313116      8.5716284918654271      14.287419999999999
   356   1       53.04660190123915        44.7749244351741      7.1900700000000004
   357   1      6.5334230039396353      43.336377657932978      11.292730000000001