(written by ASE)

1560 atoms
3 atom types

0.0      32.171464778118526  xlo xhi
0.0      32.171464778118526  ylo yhi
0.0                      50  zlo zhi

Masses

     1       137.3269999646734 # Ba
     2      15.998999995884349 # O
     3      47.866999987686484 # Ti

Atoms # atomic

     1   1      30.810366990862128      18.931668369472725      11.292730000000001
     2   1      30.810366990862128      18.931668369472725      7.1900700000000004
     3   1      30.810366990862128      18.931668369472725      3.0874199999999998
     4   1      31.305312715072212      14.972102575792038      11.292730000000001
     5   1      31.305312715072212      14.972102575792038      7.1900700000000004
     6   1      31.305312715072212      14.972102575792038      3.0874199999999998
     7   1      14.477158091929297      20.911451266313065      11.292730000000001
     8   1      14.477158091929297      20.911451266313065      7.1900700000000004
     9   1      14.477158091929297      20.911451266313065      3.0874199999999998
    10   1      13.487266643509127      28.830582853674439      11.292730000000001
    11   1      13.487266643509127      28.830582853674439      7.1900700000000004
    12   1      13.487266643509127      28.830582853674439      3.0874199999999998
    13   1      13.982212367719212      24.871017059993754      11.292730000000001
    14   1      13.982212367719212      24.871017059993754      7.1900700000000004
    15   1      13.982212367719212      24.871017059993754      3.0874199999999998
    16   1      12.497375195088955      4.5782423673802368      11.292730000000001
    17   1      4.3307558614543886      26.603328335076398      14.287419999999999
    18   1      4.8257040663591662      30.562895369104428      22.492730000000002
    19   1      4.8257040663591662      30.562895369104428      18.390070000000001
    20   1      4.8257040663591662      30.562895369104428      14.287419999999999
    21   1     0.37118882742635684      27.098276539981175      22.492730000000002
    22   1     0.37118882742635684      27.098276539981175      18.390070000000001
    23   1     0.37118882742635684      27.098276539981175      14.287419999999999
    24   1      29.325529818231871       30.81036575051478      11.292730000000001
    25   1      29.325529818231871       30.81036575051478      7.1900700000000004
    26   1      29.325529818231871       30.81036575051478      3.0874199999999998
    27   1      29.820475542441955      26.850799956834095      11.292730000000001
    28   1      29.820475542441955      26.850799956834095      7.1900700000000004
    29   1      29.820475542441955      26.850799956834095      3.0874199999999998
    30   1      31.800258439282299      11.012536782111351      11.292730000000001
    31   1      31.800258439282299      11.012536782111351      7.1900700000000004
    32   1      30.315421266652042       22.89123416315341      3.0874199999999998
    33   1      8.7852711003871971      30.067947164199651      18.390070000000001
    34   1      8.7852711003871971      30.067947164199651      14.287419999999999
    35   1      8.2903216551350756      26.108390052950387      22.492730000000002
    36   1      8.2903216551350756      26.108390052950387      18.390070000000001
    37   1      8.2903216551350756      26.108390052950387      14.287419999999999
    38   1      8.7852711003871971      30.067947164199651      22.492730000000002
    39   1      28.335638369811701      6.5580252642205803      11.292730000000001
    40   1      28.335638369811701      6.5580252642205803      7.1900700000000004
    41   1      28.335638369811701      6.5580252642205803      3.0874199999999998
    42   1      1.8560433649194568      6.8055068087570438      22.492730000000002
    43   1      1.8560433649194568      6.8055068087570438      18.390070000000001
    44   1      1.8560433649194568      6.8055068087570438      14.287419999999999
    45   1      1.3610951600146795      2.8459397747290116      22.492730000000002
    46   1      1.3610951600146795      2.8459397747290116      18.390070000000001
    47   1      1.3610951600146795      2.8459397747290116      14.287419999999999
    48   1      2.3509816470454674       10.76507260243773      22.492730000000002
    49   1      6.3105486810734988      10.270124397532951      22.492730000000002
    50   1      6.3105486810734988      10.270124397532951      18.390070000000001
    51   1      6.3105486810734988      10.270124397532951      14.287419999999999
    52   1      7.3004351681042863      18.189257225241668      22.492730000000002
    53   1      7.3004351681042863      18.189257225241668      18.390070000000001
    54   1      7.3004351681042863      18.189257225241668      14.287419999999999
    55   1      6.8054968859782772      14.229691431560985      22.492730000000002
    56   1      27.345746921391527      14.477156851581951      11.292730000000001
    57   1      27.345746921391527      14.477156851581951      7.1900700000000004
    58   1      27.345746921391527      14.477156851581951      3.0874199999999998
    59   1      27.840692645601614      10.517591057901265      11.292730000000001
    60   1      27.840692645601614      10.517591057901265      7.1900700000000004
    61   1      27.840692645601614      10.517591057901265      3.0874199999999998
    62   1      7.7953833730090647      22.148824259269702      22.492730000000002
    63   1      7.7953833730090647      22.148824259269702      18.390070000000001
    64   1      7.7953833730090647      22.148824259269702      14.287419999999999
    65   1      11.754950407037095      21.653876054364922      22.492730000000002
    66   1      11.754950407037095      21.653876054364922      18.390070000000001
    67   1      12.744836894067884      29.573008882073641      22.492730000000002
    68   1      12.744836894067884      29.573008882073641      18.390070000000001
    69   1      12.744836894067884      29.573008882073641      14.287419999999999
    70   1      5.3206621940427112      2.3509915698242341      22.492730000000002
    71   1      5.3206621940427112      2.3509915698242341      18.390070000000001
    72   1      5.3206621940427112      2.3509915698242341      14.287419999999999
    73   1      26.850801197181443      18.436722645262638      11.292730000000001
    74   1      26.850801197181443      18.436722645262638      7.1900700000000004
    75   1      26.850801197181443      18.436722645262638      3.0874199999999998
    76   1      5.8156103989474879      6.3105586038522663      22.492730000000002
    77   1      5.8156103989474879      6.3105586038522663      18.390070000000001
    78   1      5.8156103989474879      6.3105586038522663      14.287419999999999
    79   1      6.8054968859782772      14.229691431560985      18.390070000000001
    80   1      6.8054968859782772      14.229691431560985      14.287419999999999
    81   1      10.270114474754184      9.7751861154069424      14.287419999999999
    82   1      9.7751761926281731      5.8156203217262554      22.492730000000002
    83   1      9.7751761926281731      5.8156203217262554      18.390070000000001
    84   1      10.765063920006309      13.734743226656207      22.492730000000002
    85   1      10.765063920006309      13.734743226656207      18.390070000000001
    86   1      10.765063920006309      13.734743226656207      14.287419999999999
    87   1      11.754950407037095      21.653876054364922      14.287419999999999
    88   1      11.260002202132318      17.694309020336892      22.492730000000002
    89   1      11.260002202132318      17.694309020336892      18.390070000000001
    90   1      11.260002202132318      17.694309020336892      14.287419999999999
    91   1      26.355855472971356      22.396288438943323      11.292730000000001
    92   1      26.355855472971356      22.396288438943323      7.1900700000000004
    93   1      26.355855472971356      22.396288438943323      3.0874199999999998
    94   1      12.249888689163107      25.613441848045611      22.492730000000002
    95   1      12.249888689163107      25.613441848045611      18.390070000000001
    96   1      12.249888689163107      25.613441848045611      14.287419999999999
    97   1      15.714506277939014      21.158936531891566      18.390070000000001
    98   1      16.704394005317148      29.078059436821519      22.492730000000002
    99   1      16.704394005317148      29.078059436821519      18.390070000000001
   100   1      16.704394005317148      29.078059436821519      14.287419999999999
   101   1      25.365964024551186      30.315420026304697      11.292730000000001
   102   1      25.365964024551186      30.315420026304697      7.1900700000000004
   103   1      25.365964024551186      30.315420026304697      3.0874199999999998
   104   1      25.860909748761269      26.355854232624012      11.292730000000001
   105   1      25.860909748761269      26.355854232624012      7.1900700000000004
   106   1      25.860909748761269      26.355854232624012      3.0874199999999998
   107   1      9.7751761926281731      5.8156203217262554      14.287419999999999
   108   1      9.2802279877233964      1.8560532876982239      22.492730000000002
   109   1      9.2802279877233964      1.8560532876982239      18.390070000000001
   110   1      9.2802279877233964      1.8560532876982239      14.287419999999999
   111   1      10.270114474754184      9.7751861154069424      22.492730000000002
   112   1      10.270114474754184      9.7751861154069424      18.390070000000001
   113   1      13.734733303877439      5.3206708764741322      22.492730000000002
   114   1      13.734733303877439      5.3206708764741322      18.390070000000001
   115   1      14.724619790908228      13.239803704182849      22.492730000000002
   116   1      14.724619790908228      13.239803704182849      18.390070000000001
   117   1      14.724619790908228      13.239803704182849      14.287419999999999
   118   1      15.714506277939014      21.158936531891566      14.287419999999999
   119   1      15.219567995813005      17.199370738210884      22.492730000000002
   120   1      15.219567995813005      17.199370738210884      18.390070000000001
   121   1      15.219567995813005      17.199370738210884      14.287419999999999
   122   1      24.871017059993751      2.1035236691085748      11.292730000000001
   123   1      24.871017059993751      2.1035236691085748      7.1900700000000004
   124   1      24.871017059993751      2.1035236691085748      3.0874199999999998
   125   1      16.209454482843793        25.1185035659196      22.492730000000002
   126   1      16.209454482843793        25.1185035659196      18.390070000000001
   127   1      16.209454482843793        25.1185035659196      14.287419999999999
   128   1      15.714506277939014      21.158936531891566      22.492730000000002
   129   1      20.169021516871826      24.623555361014823      14.287419999999999
   130   1      19.674073311967046      20.663988326986793      22.492730000000002
   131   1      19.674073311967046      20.663988326986793      18.390070000000001
   132   1      20.663959798997833      28.583121154695508      22.492730000000002
   133   1      20.663959798997833      28.583121154695508      18.390070000000001
   134   1      20.663959798997833      28.583121154695508      14.287419999999999
   135   1      13.734733303877439      5.3206708764741322      14.287419999999999
   136   1       13.23979502175143      1.3611050827934466      22.492730000000002
   137   1       13.23979502175143      1.3611050827934466      18.390070000000001
   138   1       13.23979502175143      1.3611050827934466      14.287419999999999
   139   1      24.376072576131012      6.0630795400104942      11.292730000000001
   140   1      24.376072576131012      6.0630795400104942      7.1900700000000004
   141   1      24.376072576131012      6.0630795400104942      3.0874199999999998
   142   1      14.229681508782217       9.280237910502164      22.492730000000002
   143   1      14.229681508782217       9.280237910502164      18.390070000000001
   144   1      14.229681508782217       9.280237910502164      14.287419999999999
   145   1      17.694299097558126      4.8257325943481222      18.390070000000001
   146   1      18.684186824936255      12.744855499278072      22.492730000000002
   147   1      18.684186824936255      12.744855499278072      18.390070000000001
   148   1      18.684186824936255      12.744855499278072      14.287419999999999
   149   1      23.386181127710838      13.982211127371865      11.292730000000001
   150   1      23.386181127710838      13.982211127371865      7.1900700000000004
   151   1      23.386181127710838      13.982211127371865      3.0874199999999998
   152   1      23.881126851920925      10.022645333691178      11.292730000000001
   153   1      23.881126851920925      10.022645333691178      7.1900700000000004
   154   1      23.881126851920925      10.022645333691178      3.0874199999999998
   155   1      19.674073311967046      20.663988326986793      14.287419999999999
   156   1      19.179135029841035      16.704422533306104      22.492730000000002
   157   1      19.179135029841035      16.704422533306104      18.390070000000001
   158   1      19.179135029841035      16.704422533306104      14.287419999999999
   159   1      20.169021516871826      24.623555361014823      22.492730000000002
   160   1      20.169021516871826      24.623555361014823      18.390070000000001
   161   1       25.11847503793064      32.047739983818758      14.287419999999999
   162   1      24.623526833025867      28.088172949790732      22.492730000000002
   163   1      24.623526833025867      28.088172949790732      18.390070000000001
   164   1      24.623526833025867      28.088172949790732      14.287419999999999
   165   1      17.694299097558126      4.8257325943481222      14.287419999999999
   166   1      17.199360815432115     0.86616680066743601      22.492730000000002
   167   1      17.199360815432115     0.86616680066743601      18.390070000000001
   168   1      17.199360815432115     0.86616680066743601      14.287419999999999
   169   1       25.11847503793064      32.047739983818758      22.492730000000002
   170   1      22.891235403500755      17.941776921052551      11.292730000000001
   171   1      22.891235403500755      17.941776921052551      7.1900700000000004
   172   1      22.891235403500755      17.941776921052551      3.0874199999999998
   173   1      18.189247302462906      8.7852996283761549      22.492730000000002
   174   1      18.189247302462906      8.7852996283761549      18.390070000000001
   175   1      18.189247302462906      8.7852996283761549      14.287419999999999
   176   1      17.694299097558126      4.8257325943481222      22.492730000000002
   177   1       23.13870082352172      16.209484251180093      18.390070000000001
   178   1       23.13870082352172      16.209484251180093      14.287419999999999
   179   1      22.643752618616944      12.249917217152062      22.492730000000002
   180   1      22.643752618616944      12.249917217152062      18.390070000000001
   181   1      22.643752618616944      12.249917217152062      14.287419999999999
   182   1      23.633639105647735      20.169050044860782      22.492730000000002
   183   1      23.633639105647735      20.169050044860782      18.390070000000001
   184   1      23.633639105647735      20.169050044860782      14.287419999999999
   185   1       23.13870082352172      16.209484251180093      22.492730000000002
   186   1      22.396289679290668      21.901342714733236      11.292730000000001
   187   1      22.396289679290668      21.901342714733236      7.1900700000000004
   188   1      22.396289679290668      21.901342714733236      3.0874199999999998
   189   1      24.128587310552511      24.128617078888812      22.492730000000002
   190   1      24.128587310552511      24.128617078888812      18.390070000000001
   191   1      24.128587310552511      24.128617078888812      14.287419999999999
   192   1       25.11847503793064      32.047739983818758      18.390070000000001
   193   1      29.078040831611332      31.552801701692751      14.287419999999999
   194   1      21.653866131586156      4.3307843894433447      22.492730000000002
   195   1      21.653866131586156      4.3307843894433447      18.390070000000001
   196   1      21.653866131586156      4.3307843894433447      14.287419999999999
   197   1      21.158927849460149      0.3712185957626587      22.492730000000002
   198   1      21.158927849460149      0.3712185957626587      18.390070000000001
   199   1      21.158927849460149      0.3712185957626587      14.287419999999999
   200   1      21.406398230870497       29.82047430209461      11.292730000000001
   201   1      21.406398230870497       29.82047430209461      7.1900700000000004
   202   1      21.406398230870497       29.82047430209461      3.0874199999999998
   203   1      21.901343955080581      25.860908508413925      11.292730000000001
   204   1      21.901343955080581      25.860908508413925      7.1900700000000004
   205   1      21.901343955080581      25.860908508413925      3.0874199999999998
   206   1      22.148814336490936      8.2903514234713764      22.492730000000002
   207   1      22.148814336490936      8.2903514234713764      18.390070000000001
   208   1      22.148814336490936      8.2903514234713764      14.287419999999999
   209   1      26.108380130171621      7.7954131413453664      18.390070000000001
   210   1      26.108380130171621      7.7954131413453664      14.287419999999999
   211   1      27.098267857549754      15.714536046275317      22.492730000000002
   212   1      27.098267857549754      15.714536046275317      18.390070000000001
   213   1      27.098267857549754      15.714536046275317      14.287419999999999
   214   1      27.593206139675761      19.674101839956002      22.492730000000002
   215   1      27.593206139675761      19.674101839956002      18.390070000000001
   216   1      27.593206139675761      19.674101839956002      14.287419999999999
   217   1      28.583092626706552      27.593234667664721      22.492730000000002
   218   1      28.583092626706552      27.593234667664721      18.390070000000001
   219   1      28.583092626706552      27.593234667664721      14.287419999999999
   220   1      28.088154344580541      23.633668873984032      22.492730000000002
   221   1      28.088154344580541      23.633668873984032      18.390070000000001
   222   1      28.088154344580541      23.633668873984032      14.287419999999999
   223   1      29.078040831611332      31.552801701692751      22.492730000000002
   224   1      29.078040831611332      31.552801701692751      18.390070000000001
   225   1      25.613431925266845      3.8358461073173342      22.492730000000002
   226   1      25.613431925266845      3.8358461073173342      18.390070000000001
   227   1      25.613431925266845      3.8358461073173342      14.287419999999999
   228   1      32.047710215482461      23.138729351510676      22.492730000000002
   229   1      32.047710215482461      23.138729351510676      18.390070000000001
   230   1      32.047710215482461      23.138729351510676      14.287419999999999
   231   1      20.416506782450327      5.5681338158004081      11.292730000000001
   232   1      20.416506782450327      5.5681338158004081      7.1900700000000004
   233   1      20.416506782450327      5.5681338158004081      3.0874199999999998
   234   1      20.911451266313065      1.6085779448984892      11.292730000000001
   235   1      20.911451266313065      1.6085779448984892      7.1900700000000004
   236   1      20.911451266313065      1.6085779448984892      3.0874199999999998
   237   1      26.603319652644981      11.754969012247285      22.492730000000002
   238   1      26.603319652644981      11.754969012247285      18.390070000000001
   239   1      26.603319652644981      11.754969012247285      14.287419999999999
   240   1      26.108380130171621      7.7954131413453664      22.492730000000002
   241   1      30.067937241420886      7.3004636960932423      14.287419999999999
   242   1      19.426615334030153       13.48726540316178      11.292730000000001
   243   1      19.426615334030153       13.48726540316178      7.1900700000000004
   244   1      19.426615334030153       13.48726540316178      3.0874199999999998
   245   1       19.92156105824024      9.5276996094810933      11.292730000000001
   246   1       19.92156105824024      9.5276996094810933      7.1900700000000004
   247   1       19.92156105824024      9.5276996094810933      3.0874199999999998
   248   1      31.552771933356453      19.179163557829991      22.492730000000002
   249   1      31.552771933356453      19.179163557829991      18.390070000000001
   250   1      31.552771933356453      19.179163557829991      14.287419999999999
   251   1      31.057823728451677      15.219596523801959      22.492730000000002
   252   1      31.057823728451677      15.219596523801959      18.390070000000001
   253   1      31.057823728451677      15.219596523801959      14.287419999999999
   254   1      30.562885446325662      11.260030730121274      22.492730000000002
   255   1      30.562885446325662      11.260030730121274      18.390070000000001
   256   1      30.562885446325662      11.260030730121274      14.287419999999999
   257   1      1.1136235382569823      31.305311474724864      7.1900700000000004
   258   1      1.1136235382569823      31.305311474724864      3.0874199999999998
   259   1     0.61867781404689648      3.0934051947499794      11.292730000000001
   260   1     0.61867781404689648      3.0934051947499794      7.1900700000000004
   261   1     0.61867781404689648      3.0934051947499794      3.0874199999999998
   262   1     0.12373208983681078      7.0529709884306655      11.292730000000001
   263   1     0.12373208983681078      7.0529709884306655      7.1900700000000004
   264   1     0.12373208983681078      7.0529709884306655      3.0874199999999998
   265   1      18.931669609820069      17.446831196842467      11.292730000000001
   266   1      18.931669609820069      17.446831196842467      7.1900700000000004
   267   1      18.931669609820069      17.446831196842467      3.0874199999999998
   268   1      29.572998959294875      3.3408979024125567      22.492730000000002
   269   1      29.572998959294875      3.3408979024125567      18.390070000000001
   270   1      29.572998959294875      3.3408979024125567      14.287419999999999
   271   1      30.067937241420886      7.3004636960932423      22.492730000000002
   272   1      30.067937241420886      7.3004636960932423      18.390070000000001
   273   1      3.0934064350973252      15.467048300002123      11.292730000000001
   274   1      3.0934064350973252      15.467048300002123      7.1900700000000004
   275   1      3.0934064350973252      15.467048300002123      3.0874199999999998
   276   1      2.5984607108872391      19.426614093682808      11.292730000000001
   277   1      2.5984607108872391      19.426614093682808      7.1900700000000004
   278   1      2.5984607108872391      19.426614093682808      3.0874199999999998
   279   1      18.436723885609982      21.406396990523152      11.292730000000001
   280   1      18.436723885609982      21.406396990523152      7.1900700000000004
   281   1      18.436723885609982      21.406396990523152      3.0874199999999998
   282   1      1.6085692624670678      27.345745681044182      11.292730000000001
   283   1      1.6085692624670678      27.345745681044182      7.1900700000000004
   284   1      1.6085692624670678      27.345745681044182      3.0874199999999998
   285   1      2.1035149866771534      23.386179887363497      11.292730000000001
   286   1      2.1035149866771534      23.386179887363497      7.1900700000000004
   287   1      2.1035149866771534      23.386179887363497      3.0874199999999998
   288   1      1.1136235382569823      31.305311474724864      11.292730000000001
   289   1      5.0731893319376686      31.800257198934951      3.0874199999999998
   290   1      4.5782436077275825      3.5883509189600651      11.292730000000001
   291   1      4.5782436077275825      3.5883509189600651      7.1900700000000004
   292   1      4.5782436077275825      3.5883509189600651      3.0874199999999998
   293   1      17.446832437189812      29.325528577884523      11.292730000000001
   294   1      17.446832437189812      29.325528577884523      7.1900700000000004
   295   1      17.446832437189812      29.325528577884523      3.0874199999999998
   296   1      17.941778161399895      25.365962784203838      11.292730000000001
   297   1      17.941778161399895      25.365962784203838      7.1900700000000004
   298   1      17.941778161399895      25.365962784203838      3.0874199999999998
   299   1      3.5883521593074108      11.507482506321436      11.292730000000001
   300   1      3.5883521593074108      11.507482506321436      7.1900700000000004
   301   1      3.5883521593074108      11.507482506321436      3.0874199999999998
   302   1      4.0832978835174965      7.5479167126407507      11.292730000000001
   303   1      4.0832978835174965      7.5479167126407507      7.1900700000000004
   304   1      4.0832978835174965      7.5479167126407507      3.0874199999999998
   305   1      8.0428636771981825      8.0428624368508359      7.1900700000000004
   306   1      8.0428636771981825      8.0428624368508359      3.0874199999999998
   307   1      7.0529722287780112      15.961994024212208      11.292730000000001
   308   1      7.0529722287780112      15.961994024212208      7.1900700000000004
   309   1      7.0529722287780112      15.961994024212208      3.0874199999999998
   310   1      6.5580265045679251      19.921559817892895      11.292730000000001
   311   1      6.5580265045679251      19.921559817892895      7.1900700000000004
   312   1      6.5580265045679251      19.921559817892895      3.0874199999999998
   313   1      5.5681350561477538      27.840691405254265      11.292730000000001
   314   1      5.5681350561477538      27.840691405254265      7.1900700000000004
   315   1      5.5681350561477538      27.840691405254265      3.0874199999999998
   316   1       6.063080780357839      23.881125611573584      11.292730000000001
   317   1       6.063080780357839      23.881125611573584      7.1900700000000004
   318   1       6.063080780357839      23.881125611573584      3.0874199999999998
   319   1      5.0731893319376686      31.800257198934951      11.292730000000001
   320   1      5.0731893319376686      31.800257198934951      7.1900700000000004
   321   1      8.5378094014082677      4.0832966431701507      11.292730000000001
   322   1      8.5378094014082677      4.0832966431701507      7.1900700000000004
   323   1      8.5378094014082677      4.0832966431701507      3.0874199999999998
   324   1      9.0327538852710081     0.12374077226823207      11.292730000000001
   325   1      9.0327538852710081     0.12374077226823207      7.1900700000000004
   326   1      9.0327538852710081     0.12374077226823207      3.0874199999999998
   327   1      16.456940988769642      5.0731880915903229      11.292730000000001
   328   1      16.456940988769642      5.0731880915903229      7.1900700000000004
   329   1      16.456940988769642      5.0731880915903229      3.0874199999999998
   330   1       16.95188547263238      1.1136322206884035      11.292730000000001
   331   1       16.95188547263238      1.1136322206884035      7.1900700000000004
   332   1       16.95188547263238      1.1136322206884035      3.0874199999999998
   333   1      7.5479179529880964      12.002428230531523      11.292730000000001
   334   1      7.5479179529880964      12.002428230531523      7.1900700000000004
   335   1      7.5479179529880964      12.002428230531523      3.0874199999999998
   336   1      8.0428636771981825      8.0428624368508359      11.292730000000001
   337   1      11.012538022458697      16.456939748422293      3.0874199999999998
   338   1      10.517592298248612      20.416505542102982      11.292730000000001
   339   1      10.517592298248612      20.416505542102982      7.1900700000000004
   340   1      10.517592298248612      20.416505542102982      3.0874199999999998
   341   1      15.467049540349469      12.992319678951693      11.292730000000001
   342   1      15.467049540349469      12.992319678951693      7.1900700000000004
   343   1      15.467049540349469      12.992319678951693      3.0874199999999998
   344   1      15.961995264559555      9.0327538852710081      11.292730000000001
   345   1      15.961995264559555      9.0327538852710081      7.1900700000000004
   346   1      15.961995264559555      9.0327538852710081      3.0874199999999998
   347   1      9.5277008498284417      28.335637129464352      11.292730000000001
   348   1      9.5277008498284417      28.335637129464352      7.1900700000000004
   349   1      9.5277008498284417      28.335637129464352      3.0874199999999998
   350   1      10.022646574038527      24.376071335783667      11.292730000000001
   351   1      10.022646574038527      24.376071335783667      7.1900700000000004
   352   1      10.022646574038527      24.376071335783667      3.0874199999999998
   353   1      12.497375195088955      4.5782423673802368      7.1900700000000004
   354   1      12.497375195088955      4.5782423673802368      3.0874199999999998
   355   1      12.992319678951695     0.61868649647831797      11.292730000000001
   356   1      12.992319678951695     0.61868649647831797      7.1900700000000004
   357   1      12.992319678951695     0.61868649647831797      3.0874199999999998