(written by ASE)

10104 atoms
3 atom types

0.0      81.875733650571163  xlo xhi
0.0      81.875733650571163  ylo yhi
0.0                      50  zlo zhi

Masses

     1       137.3269999646734 # Ba
     2      15.998999995884349 # O
     3      47.866999987686484 # Ti

Atoms # atomic

     1   1      74.923099338590745      78.812689615420851      3.0874199999999998
     2   1      77.645808438462325       81.72987793671183      11.292730000000001
     3   1      77.645808438462325       81.72987793671183      7.1900700000000004
     4   1      77.645808438462325       81.72987793671183      3.0874199999999998
     5   1      80.562996759753304       79.00716883684025      11.292730000000001
     6   1      59.170372567102525       37.48572249910999      22.492730000000002
     7   1      59.170372567102525       37.48572249910999      18.390070000000001
     8   1      59.170372567102525       37.48572249910999      14.287419999999999
     9   1      30.776330210122424      49.057369225623034      11.292730000000001
    10   1      30.776330210122424      49.057369225623034      7.1900700000000004
    11   1      30.776330210122424      49.057369225623034      3.0874199999999998
    12   1      56.447677113595944      40.402923004655442      22.492730000000002
    13   1      56.447677113595944      40.402923004655442      18.390070000000001
    14   1      56.447677113595944      40.402923004655442      14.287419999999999
    15   1      33.693518531413403      46.334660125751455      11.292730000000001
    16   1      33.693518531413403      46.334660125751455      7.1900700000000004
    17   1       2.771329148911525      42.445083007916168      11.292730000000001
    18   1       2.771329148911525      42.445083007916168      7.1900700000000004
    19   1       2.771329148911525      42.445083007916168      3.0874199999999998
    20   1      40.889249236560978      1.4099741116055509      3.0874199999999998
    21   1       78.03476688130111      70.450083094386699      3.0874199999999998
    22   1      80.951955202592089      67.727373994515119      11.292730000000001
    23   1      80.951955202592089      67.727373994515119      7.1900700000000004
    24   1      80.951955202592089      67.727373994515119      3.0874199999999998
    25   1      72.005918327852442      81.535391892109928      11.292730000000001
    26   1      72.005918327852442      81.535391892109928      7.1900700000000004
    27   1      72.005918327852442      81.535391892109928      3.0874199999999998
    28   1      4.3271673065983194      2.6740724802455618      22.492730000000002
    29   1      4.3271673065983194      2.6740724802455618      18.390070000000001
    30   1      4.3271673065983194      2.6740724802455618      14.287419999999999
    31   1      80.562996759753304       79.00716883684025      7.1900700000000004
    32   1      74.923099338590745      78.812689615420851      7.1900700000000004
    33   1      9.9670627782801642      2.4795815619418708      14.287419999999999
    34   1      72.200390238719152      75.895501294129872      11.292730000000001
    35   1      72.200390238719152      75.895501294129872      7.1900700000000004
    36   1      72.200390238719152      75.895501294129872      3.0874199999999998
    37   1      7.2443673247735907      5.3967820674873224      22.492730000000002
    38   1      7.2443673247735907      5.3967820674873224      18.390070000000001
    39   1      7.2443673247735907      5.3967820674873224      14.287419999999999
    40   1      1.7989627713954357      11.231168457472858      22.492730000000002
    41   1      1.7989627713954357      11.231168457472858      18.390070000000001
    42   1      1.7989627713954357      11.231168457472858      14.287419999999999
    43   1      14.440082434075444      31.554246608429839      11.292730000000001
    44   1      14.440082434075444      31.554246608429839      7.1900700000000004
    45   1      14.440082434075444      31.554246608429839      3.0874199999999998
    46   1      37.972060915269999      4.1326832114771337      11.292730000000001
    47   1      37.972060915269999      4.1326832114771337      7.1900700000000004
    48   1      37.972060915269999      4.1326832114771337      3.0874199999999998
    49   1      69.283209227980848      78.618203570818949      3.0874199999999998
    50   1       1.993453689699126      16.871063929154701      22.492730000000002
    51   1       1.993453689699126      16.871063929154701      18.390070000000001
    52   1       1.993453689699126      16.871063929154701      14.287419999999999
    53   1      9.9670627782801642      2.4795815619418708      22.492730000000002
    54   1      9.9670627782801642      2.4795815619418708      18.390070000000001
    55   1      17.357270755366425      28.831537508558259      11.292730000000001
    56   1      17.357270755366425      28.831537508558259      7.1900700000000004
    57   1      17.357270755366425      28.831537508558259      3.0874199999999998
    58   1      20.274459076657404      26.108828408686676      11.292730000000001
    59   1      20.274459076657404      26.108828408686676      7.1900700000000004
    60   1      20.274459076657404      26.108828408686676      3.0874199999999998
    61   1       35.05487259397902      6.8553923113487132      11.292730000000001
    62   1       35.05487259397902      6.8553923113487132      7.1900700000000004
    63   1       35.05487259397902      6.8553923113487132      3.0874199999999998
    64   1      29.220495951397059      12.300810511091877      3.0874199999999998
    65   1       26.30330763010608      15.023519610963458      7.1900700000000004
    66   1       26.30330763010608      15.023519610963458      3.0874199999999998
    67   1      78.229246102720509       64.81018567322414      11.292730000000001
    68   1      78.229246102720509       64.81018567322414      7.1900700000000004
    69   1      78.229246102720509       64.81018567322414      3.0874199999999998
    70   1      81.146434424011488      62.087476573352568      11.292730000000001
    71   1      81.146434424011488      62.087476573352568      7.1900700000000004
    72   1      81.146434424011488      62.087476573352568      3.0874199999999998
    73   1      4.7161559663882038      13.953870734161935      22.492730000000002
    74   1      4.7161559663882038      13.953870734161935      18.390070000000001
    75   1      4.7161559663882038      13.953870734161935      14.287419999999999
    76   1      66.366020906689869      81.340912670690528      11.292730000000001
    77   1      66.366020906689869      81.340912670690528      7.1900700000000004
    78   1      66.366020906689869      81.340912670690528      3.0874199999999998
    79   1      69.283209227980848      78.618203570818949      11.292730000000001
    80   1      69.283209227980848      78.618203570818949      7.1900700000000004
    81   1      29.026016729977663      17.940707932254437      7.1900700000000004
    82   1      12.884255973272934      5.2022838386309491      14.287419999999999
    83   1       75.31205778142953       67.53289477309572      11.292730000000001
    84   1       75.31205778142953       67.53289477309572      7.1900700000000004
    85   1       75.31205778142953       67.53289477309572      3.0874199999999998
    86   1      7.4388582430772816      11.036677539169167      22.492730000000002
    87   1      7.4388582430772816      11.036677539169167      18.390070000000001
    88   1      7.4388582430772816      11.036677539169167      14.287419999999999
    89   1      10.161560519766359      8.1194843441764011      22.492730000000002
    90   1      32.137684272688034      9.5781014112202953      11.292730000000001
    91   1      32.137684272688034      9.5781014112202953      7.1900700000000004
    92   1      32.137684272688034      9.5781014112202953      3.0874199999999998
    93   1      23.191640087395701      23.386126131997599      11.292730000000001
    94   1      23.191640087395701      23.386126131997599      7.1900700000000004
    95   1      23.191640087395701      23.386126131997599      3.0874199999999998
    96   1       26.30330763010608      15.023519610963458      11.292730000000001
    97   1      72.394869460138551      70.255603872967313      11.292730000000001
    98   1      72.394869460138551      70.255603872967313      7.1900700000000004
    99   1      72.394869460138551      70.255603872967313      3.0874199999999998
   100   1      10.161560519766359      8.1194843441764011      18.390070000000001
   101   1      10.161560519766359      8.1194843441764011      14.287419999999999
   102   1      12.884255973272934      5.2022838386309491      22.492730000000002
   103   1      12.884255973272934      5.2022838386309491      18.390070000000001
   104   1      29.220495951397059      12.300810511091877      11.292730000000001
   105   1      29.220495951397059      12.300810511091877      7.1900700000000004
   106   1       26.10882840868668       20.66341703212602      11.292730000000001
   107   1       26.10882840868668       20.66341703212602      7.1900700000000004
   108   1       26.10882840868668       20.66341703212602      3.0874199999999998
   109   1      23.386119308815097      17.746228710835041      11.292730000000001
   110   1      23.386119308815097      17.746228710835041      7.1900700000000004
   111   1      23.386119308815097      17.746228710835041      3.0874199999999998
   112   1      29.026016729977663      17.940707932254437      11.292730000000001
   113   1      20.468930987524118       20.46893781070662      11.292730000000001
   114   1      20.468930987524118       20.46893781070662      7.1900700000000004
   115   1      20.468930987524118       20.46893781070662      3.0874199999999998
   116   1       14.63456165549484       25.91434918726728      11.292730000000001
   117   1       14.63456165549484       25.91434918726728      7.1900700000000004
   118   1      66.560500128109268       75.70101524952797      11.292730000000001
   119   1      66.560500128109268       75.70101524952797      7.1900700000000004
   120   1      66.560500128109268       75.70101524952797      3.0874199999999998
   121   1      69.477681138847572      72.978312972838893      11.292730000000001
   122   1      2.1879446080028169      22.510959400836548      22.492730000000002
   123   1      2.1879446080028169      22.510959400836548      18.390070000000001
   124   1      15.606958249962011      2.2850906436381795      22.492730000000002
   125   1      15.606958249962011      2.2850906436381795      18.390070000000001
   126   1      15.606958249962011      2.2850906436381795      14.287419999999999
   127   1      69.477681138847572      72.978312972838893      7.1900700000000004
   128   1      69.477681138847572      72.978312972838893      3.0874199999999998
   129   1      11.717373334203861       28.63705828713886      3.0874199999999998
   130   1      7.6333491613809716      16.676573010851012      22.492730000000002
   131   1      7.6333491613809716      16.676573010851012      18.390070000000001
   132   1      7.6333491613809716      16.676573010851012      14.287419999999999
   133   1      63.643311806818289      78.423724349399549      11.292730000000001
   134   1      63.643311806818289      78.423724349399549      7.1900700000000004
   135   1      63.643311806818289      78.423724349399549      3.0874199999999998
   136   1      2.1879446080028169      22.510959400836548      14.287419999999999
   137   1      4.9106468846918947      19.593766205843782      22.492730000000002
   138   1      4.9106468846918947      19.593766205843782      18.390070000000001
   139   1      4.9106468846918947      19.593766205843782      14.287419999999999
   140   1      29.026016729977663      17.940707932254437      3.0874199999999998
   141   1      31.943205051268642      15.217998832382856      11.292730000000001
   142   1      31.943205051268642      15.217998832382856      7.1900700000000004
   143   1      31.943205051268642      15.217998832382856      3.0874199999999998
   144   1      17.551749976785821      23.191640087395697      3.0874199999999998
   145   1       60.72612348552731      81.146433449271129      11.292730000000001
   146   1       60.72612348552731      81.146433449271129      7.1900700000000004
   147   1       60.72612348552731      81.146433449271129      3.0874199999999998
   148   1       10.35605143807005      13.759379815858246      22.492730000000002
   149   1       10.35605143807005      13.759379815858246      18.390070000000001
   150   1       10.35605143807005      13.759379815858246      14.287419999999999
   151   1      13.078753714759127      10.842186620865478      22.492730000000002
   152   1      13.078753714759127      10.842186620865478      18.390070000000001
   153   1       14.63456165549484       25.91434918726728      3.0874199999999998
   154   1      17.551749976785821      23.191640087395697      11.292730000000001
   155   1      17.551749976785821      23.191640087395697      7.1900700000000004
   156   1      34.860393372559621      12.495289732511274      11.292730000000001
   157   1      34.860393372559621      12.495289732511274      7.1900700000000004
   158   1      34.860393372559621      12.495289732511274      3.0874199999999998
   159   1      11.717373334203861       28.63705828713886      11.292730000000001
   160   1      11.717373334203861       28.63705828713886      7.1900700000000004
   161   1      40.694770015141579      7.0498715327681127      11.292730000000001
   162   1      40.694770015141579      7.0498715327681127      7.1900700000000004
   163   1      40.694770015141579      7.0498715327681127      3.0874199999999998
   164   1       75.50653700284893      61.892997351933168      11.292730000000001
   165   1       75.50653700284893      61.892997351933168      7.1900700000000004
   166   1       75.50653700284893      61.892997351933168      3.0874199999999998
   167   1      78.423725324139909      59.170288252061589      11.292730000000001
   168   1      78.423725324139909      59.170288252061589      7.1900700000000004
   169   1      13.078753714759127      10.842186620865478      14.287419999999999
   170   1      15.801449168265702      7.9249861153200261      22.492730000000002
   171   1      15.801449168265702      7.9249861153200261      18.390070000000001
   172   1      15.801449168265702      7.9249861153200261      14.287419999999999
   173   1      78.423725324139909      59.170288252061589      3.0874199999999998
   174   1      81.340913645430888      56.447579152190002      11.292730000000001
   175   1      81.340913645430888      56.447579152190002      7.1900700000000004
   176   1      81.340913645430888      56.447579152190002      3.0874199999999998
   177   1      21.246853721643856      2.0905997253344877      22.492730000000002
   178   1      21.246853721643856      2.0905997253344877      18.390070000000001
   179   1      21.246853721643856      2.0905997253344877      14.287419999999999
   180   1      72.589348681557951      64.615706451804741      11.292730000000001
   181   1      72.589348681557951      64.615706451804741      7.1900700000000004
   182   1      72.589348681557951      64.615706451804741      3.0874199999999998
   183   1      18.524151444954779      5.0077929203272573      22.492730000000002
   184   1      18.524151444954779      5.0077929203272573      18.390070000000001
   185   1      18.524151444954779      5.0077929203272573      14.287419999999999
   186   1        37.7775816938506      9.7725806326396931      11.292730000000001
   187   1        37.7775816938506      9.7725806326396931      7.1900700000000004
   188   1        37.7775816938506      9.7725806326396931      3.0874199999999998
   189   1      5.8829966916219014      34.082476486882022      3.0874199999999998
   190   1      8.8001850129128822      31.359767387010443      11.292730000000001
   191   1      8.8001850129128822      31.359767387010443      7.1900700000000004
   192   1      8.8001850129128822      31.359767387010443      3.0874199999999998
   193   1      66.754972038975993      70.061124651547914      3.0874199999999998
   194   1      69.672160360266972      67.338415551676334      11.292730000000001
   195   1      69.672160360266972      67.338415551676334      7.1900700000000004
   196   1      69.672160360266972      67.338415551676334      3.0874199999999998
   197   1      2.3824355263065096      28.150854872518394      22.492730000000002
   198   1      2.3824355263065096      28.150854872518394      18.390070000000001
   199   1      2.3824355263065096      28.150854872518394      14.287419999999999
   200   1      43.611958336432558      4.3271624328965297      11.292730000000001
   201   1      43.611958336432558      4.3271624328965297      7.1900700000000004
   202   1      43.611958336432558      4.3271624328965297      3.0874199999999998
   203   1      2.9658083703309206      36.805185586753609      11.292730000000001
   204   1      2.9658083703309206      36.805185586753609      7.1900700000000004
   205   1      2.9658083703309206      36.805185586753609      3.0874199999999998
   206   1      5.8829966916219014      34.082476486882022      11.292730000000001
   207   1      5.8829966916219014      34.082476486882022      7.1900700000000004
   208   1    0.048620049039942159      39.527894686625189      11.292730000000001
   209   1      32.332163494107434       3.938203990057731      7.1900700000000004
   210   1      32.332163494107434       3.938203990057731      3.0874199999999998
   211   1      35.249351815398413      1.2154948901861509      11.292730000000001
   212   1      35.249351815398413      1.2154948901861509      7.1900700000000004
   213   1      35.249351815398413      1.2154948901861509      3.0874199999999998
   214   1      66.754972038975993      70.061124651547914      11.292730000000001
   215   1      66.754972038975993      70.061124651547914      7.1900700000000004
   216   1      7.8278400796846643      22.316468482532859      22.492730000000002
   217   1      7.8278400796846643      22.316468482532859      18.390070000000001
   218   1      7.8278400796846643      22.316468482532859      14.287419999999999
   219   1      10.550542356373739      19.399275287540089      22.492730000000002
   220   1      10.550542356373739      19.399275287540089      18.390070000000001
   221   1      10.550542356373739      19.399275287540089      14.287419999999999
   222   1      5.1051378029955856      25.233661677525628      22.492730000000002
   223   1      5.1051378029955856      25.233661677525628      18.390070000000001
   224   1      5.1051378029955856      25.233661677525628      14.287419999999999
   225   1      2.5768499274921228      48.084980429078719      11.292730000000001
   226   1       60.92060270694671       75.50653602810857      11.292730000000001
   227   1       60.92060270694671       75.50653602810857      7.1900700000000004
   228   1       60.92060270694671       75.50653602810857      3.0874199999999998
   229   1      13.273244633062816      16.482082092547319      22.492730000000002
   230   1      13.273244633062816      16.482082092547319      18.390070000000001
   231   1      13.273244633062816      16.482082092547319      14.287419999999999
   232   1      63.837791028237689      72.783826928236991      11.292730000000001
   233   1      63.837791028237689      72.783826928236991      7.1900700000000004
   234   1      63.837791028237689      72.783826928236991      3.0874199999999998
   235   1    0.048620049039942159      39.527894686625189      7.1900700000000004
   236   1    0.048620049039942159      39.527894686625189      3.0874199999999998
   237   1      46.529146657723544      1.6044533330249475      11.292730000000001
   238   1      46.529146657723544      1.6044533330249475      7.1900700000000004
   239   1      46.529146657723544      1.6044533330249475      3.0874199999999998
   240   1      32.332163494107434       3.938203990057731      11.292730000000001
   241   1      58.003414385655731       78.22924512798015      3.0874199999999998
   242   1      18.718642363258468      10.647688392009103      22.492730000000002
   243   1      18.718642363258468      10.647688392009103      18.390070000000001
   244   1      18.718642363258468      10.647688392009103      14.287419999999999
   245   1      21.441344639947548       7.730495197016336      22.492730000000002
   246   1      21.441344639947548       7.730495197016336      18.390070000000001
   247   1      21.441344639947548       7.730495197016336      14.287419999999999
   248   1      15.995946909751893      13.564888897554553      22.492730000000002
   249   1      15.995946909751893      13.564888897554553      18.390070000000001
   250   1      15.995946909751893      13.564888897554553      14.287419999999999
   251   1      29.414975172816455      6.6609130899293136      11.292730000000001
   252   1      29.414975172816455      6.6609130899293136      7.1900700000000004
   253   1      29.414975172816455      6.6609130899293136      3.0874199999999998
   254   1      26.497786851525476       9.383622189800894      11.292730000000001
   255   1      26.497786851525476       9.383622189800894      7.1900700000000004
   256   1      26.497786851525476       9.383622189800894      3.0874199999999998
   257   1      24.164046916636625      4.8133020020235673      18.390070000000001
   258   1      24.164046916636625      4.8133020020235673      14.287419999999999
   259   1      55.086226064364752      80.951954227851729      3.0874199999999998
   260   1      58.003414385655731       78.22924512798015      11.292730000000001
   261   1      2.5768499274921228      48.084980429078719      7.1900700000000004
   262   1      2.5768499274921228      48.084980429078719      3.0874199999999998
   263   1      5.4940382487831014       45.36227132920714      11.292730000000001
   264   1      5.4940382487831014       45.36227132920714      7.1900700000000004
   265   1      5.4940382487831014       45.36227132920714      3.0874199999999998
   266   1      20.663410208943514      14.829040389544057      11.292730000000001
   267   1      20.663410208943514      14.829040389544057      7.1900700000000004
   268   1      20.663410208943514      14.829040389544057      3.0874199999999998
   269   1      23.580598530234496      12.106331289672475      11.292730000000001
   270   1      23.580598530234496      12.106331289672475      7.1900700000000004
   271   1      23.580598530234496      12.106331289672475      3.0874199999999998
   272   1      58.003414385655731       78.22924512798015      7.1900700000000004
   273   1      2.5769264446101978      33.790750344200241      14.287419999999999
   274   1      75.701016224268329       56.25309993077061      11.292730000000001
   275   1      75.701016224268329       56.25309993077061      7.1900700000000004
   276   1      75.701016224268329       56.25309993077061      3.0874199999999998
   277   1      26.886749193325702      1.8961088070307996      22.492730000000002
   278   1      26.886749193325702      1.8961088070307996      18.390070000000001
   279   1      26.886749193325702      1.8961088070307996      14.287419999999999
   280   1      78.618204545559308      53.530390830899023      11.292730000000001
   281   1      78.618204545559308      53.530390830899023      7.1900700000000004
   282   1      78.618204545559308      53.530390830899023      3.0874199999999998
   283   1      81.535392866850287      50.807681731027444      11.292730000000001
   284   1      81.535392866850287      50.807681731027444      7.1900700000000004
   285   1      81.535392866850287      50.807681731027444      3.0874199999999998
   286   1      55.086226064364752      80.951954227851729      11.292730000000001
   287   1      55.086226064364752      80.951954227851729      7.1900700000000004
   288   1      24.164046916636625      4.8133020020235673      22.492730000000002
   289   1      5.2996287212992765      30.873557149207471      18.390070000000001
   290   1      5.2996287212992765      30.873557149207471      14.287419999999999
   291   1       72.78382790297735      58.975809030642189      11.292730000000001
   292   1       72.78382790297735      58.975809030642189      7.1900700000000004
   293   1       72.78382790297735      58.975809030642189      3.0874199999999998
   294   1      2.5769264446101978      33.790750344200241      22.492730000000002
   295   1      2.5769264446101978      33.790750344200241      18.390070000000001
   296   1      8.4112265700740796       42.63956222933556      11.292730000000001
   297   1      8.4112265700740796       42.63956222933556      7.1900700000000004
   298   1      8.4112265700740796       42.63956222933556      3.0874199999999998
   299   1      17.746221887652535      17.551749489415638      11.292730000000001
   300   1      17.746221887652535      17.551749489415638      7.1900700000000004
   301   1      17.746221887652535      17.551749489415638      3.0874199999999998
   302   1      14.829040876914238      20.274451766104715      11.292730000000001
   303   1      14.829040876914238      20.274451766104715      7.1900700000000004
   304   1      14.829040876914238      20.274451766104715      3.0874199999999998
   305   1      69.866639581686371      61.698518130513769      7.1900700000000004
   306   1      69.866639581686371      61.698518130513769      3.0874199999999998
   307   1      8.0223309979883535      27.956363954214705      22.492730000000002
   308   1      8.0223309979883535      27.956363954214705      18.390070000000001
   309   1      8.0223309979883535      27.956363954214705      14.287419999999999
   310   1       11.32841489136506      39.916853129463981      11.292730000000001
   311   1       11.32841489136506      39.916853129463981      7.1900700000000004
   312   1       11.32841489136506      39.916853129463981      3.0874199999999998
   313   1      8.9946642343322782      25.719869965847877      11.292730000000001
   314   1      8.9946642343322782      25.719869965847877      7.1900700000000004
   315   1      8.9946642343322782      25.719869965847877      3.0874199999999998
   316   1      11.911852555623257      22.997160865976298      11.292730000000001
   317   1      11.911852555623257      22.997160865976298      7.1900700000000004
   318   1      11.911852555623257      22.997160865976298      3.0874199999999998
   319   1      14.245603212656041      37.194144029592394      11.292730000000001
   320   1      5.2996287212992765      30.873557149207471      22.492730000000002
   321   1      6.0774759130412983       28.44257906571946      3.0874199999999998
   322   1      16.190437828055586        19.2047843692364      18.390070000000001
   323   1      16.190437828055586        19.2047843692364      14.287419999999999
   324   1      64.032262939104413      67.143936330256935      11.292730000000001
   325   1      64.032262939104413      67.143936330256935      7.1900700000000004
   326   1      64.032262939104413      67.143936330256935      3.0874199999999998
   327   1       10.74503327467743      25.039170759221935      22.492730000000002
   328   1       10.74503327467743      25.039170759221935      18.390070000000001
   329   1       10.74503327467743      25.039170759221935      14.287419999999999
   330   1      13.467735551366511      22.121977564229166      22.492730000000002
   331   1      13.467735551366511      22.121977564229166      18.390070000000001
   332   1      13.467735551366511      22.121977564229166      14.287419999999999
   333   1      66.949451260395392      64.421227230385355      11.292730000000001
   334   1      66.949451260395392      64.421227230385355      7.1900700000000004
   335   1      66.949451260395392      64.421227230385355      3.0874199999999998
   336   1      69.866639581686371      61.698518130513769      11.292730000000001
   337   1      0.2430992704593376      33.887997265462623      3.0874199999999998
   338   1      24.358537834940314      10.453197473705412      14.287419999999999
   339   1      61.115081928366109      69.866638606946012      11.292730000000001
   340   1      61.115081928366109      69.866638606946012      7.1900700000000004
   341   1      61.115081928366109      69.866638606946012      3.0874199999999998
   342   1      18.913140104744663      16.287591174243634      22.492730000000002
   343   1      18.913140104744663      16.287591174243634      18.390070000000001
   344   1      18.913140104744663      16.287591174243634      14.287419999999999
   345   1      16.190437828055586        19.2047843692364      22.492730000000002
   346   1      14.245603212656041      37.194144029592394      7.1900700000000004
   347   1      14.245603212656041      37.194144029592394      3.0874199999999998
   348   1      17.162791533947019      34.471434929720814      11.292730000000001
   349   1      17.162791533947019      34.471434929720814      7.1900700000000004
   350   1      17.162791533947019      34.471434929720814      3.0874199999999998
   351   1      6.0774759130412983       28.44257906571946      11.292730000000001
   352   1      6.0774759130412983       28.44257906571946      7.1900700000000004
   353   1       58.19789360707513      72.589347706817591      11.292730000000001
   354   1       58.19789360707513      72.589347706817591      7.1900700000000004
   355   1       58.19789360707513      72.589347706817591      3.0874199999999998
   356   1      21.635835558251237      13.370390668698178      22.492730000000002
   357   1      21.635835558251237      13.370390668698178      18.390070000000001