(written by ASE)

6456 atoms
3 atom types

0.0      65.447083294692249  xlo xhi
0.0      65.447083294692249  ylo yhi
0.0                      50  zlo zhi

Masses

     1       137.3269999646734 # Ba
     2      15.998999995884349 # O
     3      47.866999987686484 # Ti

Atoms # atomic

     1   1      34.487444738059075       30.10808927945148      7.1900700000000004
     2   1      57.113524509133555      12.471814697276429      18.390070000000001
     3   1      57.113524509133555      12.471814697276429      22.492730000000002
     4   1      54.680390797299388      15.634560010502904      14.287419999999999
     5   1      54.680390797299388      15.634560010502904      18.390070000000001
     6   1      59.546652123860127      9.3090614578100599      14.287419999999999
     7   1      59.546652123860127      9.3090614578100599      18.390070000000001
     8   1      59.546652123860127      9.3090614578100599      22.492730000000002
     9   1      31.324573824415857      32.541066905330879      3.0874199999999998
    10   1      31.324573824415857      32.541066905330879      7.1900700000000004
    11   1      31.324573824415857      32.541066905330879      11.292730000000001
    12   1      54.680390797299388      15.634560010502904      22.492730000000002
    13   1      52.247263182572823      18.797313249969275      14.287419999999999
    14   1      52.247263182572823      18.797313249969275      18.390070000000001
    15   1      52.247263182572823      18.797313249969275      22.492730000000002
    16   1      34.487444738059075       30.10808927945148      3.0874199999999998
    17   1      24.998839923369321      37.407016059982062      3.0874199999999998
    18   1      34.487444738059075       30.10808927945148      11.292730000000001
    19   1      57.113524509133555      12.471814697276429      14.287419999999999
    20   1      43.976057478988714      22.809156401813294      11.292730000000001
    21   1      49.814121544498761      21.960064660303367      14.287419999999999
    22   1      49.814121544498761      21.960064660303367      18.390070000000001
    23   1      49.814121544498761      21.960064660303367      22.492730000000002
    24   1      40.813186565345497      25.242134027692693      3.0874199999999998
    25   1      40.813186565345497      25.242134027692693      7.1900700000000004
    26   1      40.813186565345497      25.242134027692693      11.292730000000001
    27   1      37.650315651702286      27.675111653572085      3.0874199999999998
    28   1      37.650315651702286      27.675111653572085      7.1900700000000004
    29   1      37.650315651702286      27.675111653572085      11.292730000000001
    30   1      42.514732603211456      31.448316452462581      14.287419999999999
    31   1      42.514732603211456      31.448316452462581      18.390070000000001
    32   1      42.514732603211456      31.448316452462581      22.492730000000002
    33   1      23.779289142988642      62.346209808749748      14.287419999999999
    34   1       15.51022718243968      44.705948937620249      7.1900700000000004
    35   1       15.51022718243968      44.705948937620249      11.292730000000001
    36   1      26.212416757715207      59.183456569283379      18.390070000000001
    37   1      26.212416757715207      59.183456569283379      22.492730000000002
    38   1      31.078686010515835      52.857951919482915      14.287419999999999
    39   1      31.078686010515835      52.857951919482915      18.390070000000001
    40   1      31.078686010515835      52.857951919482915      22.492730000000002
    41   1      28.645550469549377      56.020711256056892      14.287419999999999
    42   1      28.645550469549377      56.020711256056892      18.390070000000001
    43   1      28.645550469549377      56.020711256056892      22.492730000000002
    44   1      18.673098096082892      42.272971311740854      3.0874199999999998
    45   1      18.673098096082892      42.272971311740854      7.1900700000000004
    46   1      18.673098096082892      42.272971311740854      11.292730000000001
    47   1      24.998839923369321      37.407016059982062      7.1900700000000004
    48   1      24.998839923369321      37.407016059982062      11.292730000000001
    49   1      47.380993929772195      25.122817899769736      14.287419999999999
    50   1      23.779289142988642      62.346209808749748      18.390070000000001
    51   1      23.779289142988642      62.346209808749748      22.492730000000002
    52   1      21.835969009726107      39.839993685861458      3.0874199999999998
    53   1      21.835969009726107      39.839993685861458      7.1900700000000004
    54   1      21.835969009726107      39.839993685861458      11.292730000000001
    55   1      26.212416757715207      59.183456569283379      14.287419999999999
    56   1      64.412921376660748      2.9835568080095971      14.287419999999999
    57   1      64.412921376660748      2.9835568080095971      18.390070000000001
    58   1      64.412921376660748      2.9835568080095971      22.492730000000002
    59   1      61.979785835694301      6.1463161445835723      14.287419999999999
    60   1      61.979785835694301      6.1463161445835723      18.390070000000001
    61   1      61.979785835694301      6.1463161445835723      22.492730000000002
    62   1      28.161702910772643      34.974044531210275      3.0874199999999998
    63   1      28.161702910772643      34.974044531210275      7.1900700000000004
    64   1      28.161702910772643      34.974044531210275      11.292730000000001
    65   1      2.1288502401030107      60.033707980660445      7.1900700000000004
    66   1       32.78220202385009      44.099319654955892      18.390070000000001
    67   1       32.78220202385009      44.099319654955892      22.492730000000002
    68   1      56.627541133561571      13.077245898295713      3.0874199999999998
    69   1      23.049671444488727      56.750322857449198      22.492730000000002
    70   1      27.915932771049462      50.424824304756349      14.287419999999999
    71   1      27.915932771049462      50.424824304756349      18.390070000000001
    72   1      27.915932771049462      50.424824304756349      22.492730000000002
    73   1      25.482799059215285       53.58756961798283      14.287419999999999
    74   1      25.482799059215285       53.58756961798283      18.390070000000001
    75   1      62.953275034608104      8.2112967436445299      3.0874199999999998
    76   1      62.953275034608104      8.2112967436445299      7.1900700000000004
    77   1      62.953275034608104      8.2112967436445299      11.292730000000001
    78   1      59.790412047204782      10.644268272416316      3.0874199999999998
    79   1      59.790412047204782      10.644268272416316      7.1900700000000004
    80   1      59.790412047204782      10.644268272416316      11.292730000000001
    81   1       32.78220202385009      44.099319654955892      14.287419999999999
    82   1      2.1288502401030107      60.033707980660445      11.292730000000001
    83   1      20.616537732654553      59.913068170675686      14.287419999999999
    84   1      20.616537732654553      59.913068170675686      18.390070000000001
    85   1      20.616537732654553      59.913068170675686      22.492730000000002
    86   1      25.482799059215285       53.58756961798283      22.492730000000002
    87   1      23.049671444488727      56.750322857449198      14.287419999999999
    88   1      23.049671444488727      56.750322857449198      18.390070000000001
    89   1      8.4545920673894361      55.167752728901654      3.0874199999999998
    90   1      8.4545920673894361      55.167752728901654      7.1900700000000004
    91   1      8.4545920673894361      55.167752728901654      11.292730000000001
    92   1      18.183402191688103      63.075827507249663      14.287419999999999
    93   1      18.183402191688103      63.075827507249663      18.390070000000001
    94   1      18.183402191688103      63.075827507249663      22.492730000000002
    95   1      5.2917211537462236      57.600730354781049      3.0874199999999998
    96   1      5.2917211537462236      57.600730354781049      7.1900700000000004
    97   1      44.947860217938022      28.285563212996212      22.492730000000002
    98   1      47.380993929772195      25.122817899769736      18.390070000000001
    99   1      47.380993929772195      25.122817899769736      22.492730000000002
   100   1      44.947860217938022      28.285563212996212      14.287419999999999
   101   1      44.947860217938022      28.285563212996212      18.390070000000001
   102   1      43.976057478988714      22.809156401813294      3.0874199999999998
   103   1      43.976057478988714      22.809156401813294      7.1900700000000004
   104   1      50.301799306275143      17.943201150054502      3.0874199999999998
   105   1      50.301799306275143      17.943201150054502      7.1900700000000004
   106   1      50.301799306275143      17.943201150054502      11.292730000000001
   107   1      40.081590965137394      34.611067862796673      14.287419999999999
   108   1      40.081590965137394      34.611067862796673      18.390070000000001
   109   1      40.081590965137394      34.611067862796673      22.492730000000002
   110   1      47.138928392631925      20.376178775933898      3.0874199999999998
   111   1      47.138928392631925      20.376178775933898      7.1900700000000004
   112   1      47.138928392631925      20.376178775933898      11.292730000000001
   113   1       15.51022718243968      44.705948937620249      3.0874199999999998
   114   1      56.627541133561571      13.077245898295713      7.1900700000000004
   115   1      56.627541133561571      13.077245898295713      11.292730000000001
   116   1      37.648463350410829      37.773821102263042      14.287419999999999
   117   1      37.648463350410829      37.773821102263042      18.390070000000001
   118   1      37.648463350410829      37.773821102263042      22.492730000000002
   119   1      35.215329638576655      40.936566415489523      14.287419999999999
   120   1      35.215329638576655      40.936566415489523      18.390070000000001
   121   1      53.464670219918361      15.510223524175105      3.0874199999999998
   122   1      53.464670219918361      15.510223524175105      7.1900700000000004
   123   1      53.464670219918361      15.510223524175105      11.292730000000001
   124   1      30.349060385776028      47.262071065289987      14.287419999999999
   125   1      30.349060385776028      47.262071065289987      18.390070000000001
   126   1      30.349060385776028      47.262071065289987      22.492730000000002
   127   1      35.215329638576655      40.936566415489523      22.492730000000002
   128   1      31.808303709015746      58.453838870783464      22.492730000000002
   129   1      34.241431323742312      55.291085631317088      18.390070000000001
   130   1      34.241431323742312      55.291085631317088      22.492730000000002
   131   1      39.107700576542939      48.965580981516624      14.287419999999999
   132   1      39.107700576542939      48.965580981516624      18.390070000000001
   133   1      39.107700576542939      48.965580981516624      22.492730000000002
   134   1      36.674565035576485      52.128340318090608      14.287419999999999
   135   1      36.674565035576485      52.128340318090608      18.390070000000001
   136   1      36.674565035576485      52.128340318090608      22.492730000000002
   137   1      41.543085950216934      19.646293414409971      3.0874199999999998
   138   1      41.543085950216934      19.646293414409971      7.1900700000000004
   139   1      47.868827777503363       14.78033816265118      3.0874199999999998
   140   1      47.868827777503363       14.78033816265118      7.1900700000000004
   141   1      47.868827777503363       14.78033816265118      11.292730000000001
   142   1      31.808303709015746      58.453838870783464      14.287419999999999
   143   1      31.808303709015746      58.453838870783464      18.390070000000001
   144   1      34.241431323742312      55.291085631317088      14.287419999999999
   145   1      44.705956863860145      17.213315788530576      3.0874199999999998
   146   1      44.705956863860145      17.213315788530576      7.1900700000000004
   147   1      44.705956863860145      17.213315788530576      11.292730000000001
   148   1      29.375169997181573       61.61658418400993      14.287419999999999
   149   1      29.375169997181573       61.61658418400993      18.390070000000001
   150   1      29.375169997181573       61.61658418400993      22.492730000000002
   151   1      26.942042382455007      64.779337423476306      14.287419999999999
   152   1      26.942042382455007      64.779337423476306      18.390070000000001
   153   1      26.942042382455007      64.779337423476306      22.492730000000002
   154   1      51.031698691146573      12.347360536771783      3.0874199999999998
   155   1      51.031698691146573      12.347360536771783      7.1900700000000004
   156   1      51.031698691146573      12.347360536771783      11.292730000000001
   157   1      57.357440518433002      7.4814052850129942      3.0874199999999998
   158   1      57.357440518433002      7.4814052850129942      7.1900700000000004
   159   1      57.357440518433002      7.4814052850129942      11.292730000000001
   160   1      48.840231155904306      36.314577779023324      18.390070000000001
   161   1      56.139626194299218      26.826333913103998      22.492730000000002
   162   1      25.728731382000859      31.811181543806953      3.0874199999999998
   163   1      32.054473209287288      26.945226292048158      3.0874199999999998
   164   1      32.054473209287288      26.945226292048158      7.1900700000000004
   165   1      32.054473209287288      26.945226292048158      11.292730000000001
   166   1      51.273364867738479      33.151832465796844      14.287419999999999
   167   1      51.273364867738479      33.151832465796844      18.390070000000001
   168   1      51.273364867738479      33.151832465796844      22.492730000000002
   169   1      28.891602295644073      29.378203917927557      3.0874199999999998
   170   1      28.891602295644073      29.378203917927557      7.1900700000000004
   171   1      28.891602295644073      29.378203917927557      11.292730000000001
   172   1      43.973961903103678      42.640082428823781      14.287419999999999
   173   1      43.973961903103678      42.640082428823781      18.390070000000001
   174   1      43.973961903103678      42.640082428823781      22.492730000000002
   175   1      48.840231155904306      36.314577779023324      14.287419999999999
   176   1       65.14253907516067      8.5794437593101431      14.287419999999999
   177   1      48.840231155904306      36.314577779023324      22.492730000000002
   178   1      46.407095614937859      39.477337115597308      14.287419999999999
   179   1      46.407095614937859      39.477337115597308      18.390070000000001
   180   1      46.407095614937859      39.477337115597308      22.492730000000002
   181   1      41.543085950216934      19.646293414409971      11.292730000000001
   182   1      41.540834288377113       45.80283566829015      14.287419999999999
   183   1      41.540834288377113       45.80283566829015      18.390070000000001
   184   1      41.540834288377113       45.80283566829015      22.492730000000002
   185   1      38.380215036573716       22.07927104028937      3.0874199999999998
   186   1      38.380215036573716       22.07927104028937      7.1900700000000004
   187   1      38.380215036573716       22.07927104028937      11.292730000000001
   188   1      35.217344122930506      24.512248666168762      3.0874199999999998
   189   1      35.217344122930506      24.512248666168762      7.1900700000000004
   190   1      35.217344122930506      24.512248666168762      11.292730000000001
   191   1       6.021614441510037      52.004881815258436      11.292730000000001
   192   1      50.543747169238564      27.555945514496297      18.390070000000001
   193   1      50.543747169238564      27.555945514496297      22.492730000000002
   194   1       48.11061162827211      30.718704851070274      14.287419999999999
   195   1       48.11061162827211      30.718704851070274      18.390070000000001
   196   1       48.11061162827211      30.718704851070274      22.492730000000002
   197   1      2.8587435278668245      54.437859441137832      3.0874199999999998
   198   1      2.8587435278668245      54.437859441137832      7.1900700000000004
   199   1      9.1844853551532495       49.57190418937904      3.0874199999999998
   200   1      9.1844853551532495       49.57190418937904      7.1900700000000004
   201   1      9.1844853551532495       49.57190418937904      11.292730000000001
   202   1      43.244350301711378      37.044203403763127      14.287419999999999
   203   1      43.244350301711378      37.044203403763127      18.390070000000001
   204   1      43.244350301711378      37.044203403763127      22.492730000000002
   205   1       6.021614441510037      52.004881815258436      3.0874199999999998
   206   1       6.021614441510037      52.004881815258436      7.1900700000000004
   207   1      50.543747169238564      27.555945514496297      14.287419999999999
   208   1      12.347356268796466      47.138926563499645      3.0874199999999998
   209   1      12.347356268796466      47.138926563499645      7.1900700000000004
   210   1      12.347356268796466      47.138926563499645      11.292730000000001
   211   1      40.811216589877198      40.206948716989608      14.287419999999999
   212   1      40.811216589877198      40.206948716989608      18.390070000000001
   213   1      40.811216589877198      40.206948716989608      22.492730000000002
   214   1      38.378081048910744      43.369708053563585      14.287419999999999
   215   1      38.378081048910744      43.369708053563585      18.390070000000001
   216   1      38.378081048910744      43.369708053563585      22.492730000000002
   217   1      33.511819722350012      49.695206606256434      14.287419999999999
   218   1      33.511819722350012      49.695206606256434      18.390070000000001
   219   1      33.511819722350012      49.695206606256434      22.492730000000002
   220   1       35.94494733707657      46.532453366790065      14.287419999999999
   221   1       35.94494733707657      46.532453366790065      18.390070000000001
   222   1       35.94494733707657      46.532453366790065      22.492730000000002
   223   1       57.84314220763347      18.067701648576968      18.390070000000001
   224   1       65.14253907516067      8.5794437593101431      18.390070000000001
   225   1       65.14253907516067      8.5794437593101431      22.492730000000002
   226   1      62.709411460434104      11.742196998776512      14.287419999999999
   227   1      62.709411460434104      11.742196998776512      18.390070000000001
   228   1      62.709411460434104      11.742196998776512      22.492730000000002
   229   1      54.194569604789784      9.9143829108923907      3.0874199999999998
   230   1      54.194569604789784      9.9143829108923907      7.1900700000000004
   231   1      54.194569604789784      9.9143829108923907      11.292730000000001
   232   1      55.410008495799303      21.230446961803452      14.287419999999999
   233   1      55.410008495799303      21.230446961803452      18.390070000000001
   234   1      55.410008495799303      21.230446961803452      22.492730000000002
   235   1      60.276269822360035      14.904948409110597      14.287419999999999
   236   1      60.276269822360035      14.904948409110597      18.390070000000001
   237   1      60.276269822360035      14.904948409110597      22.492730000000002
   238   1       57.84314220763347      18.067701648576968      14.287419999999999
   239   1      5.2917211537462236      57.600730354781049      11.292730000000001
   240   1       57.84314220763347      18.067701648576968      22.492730000000002
   241   1      2.8587435278668245      54.437859441137832      11.292730000000001
   242   1      52.976880881072738      24.393200201269817      14.287419999999999
   243   1      52.976880881072738      24.393200201269817      18.390070000000001
   244   1      52.976880881072738      24.393200201269817      22.492730000000002
   245   1      63.683174419479535      2.6154561303618107      3.0874199999999998
   246   1      63.683174419479535      2.6154561303618107      7.1900700000000004
   247   1      63.683174419479535      2.6154561303618107      11.292730000000001
   248   1      60.520303505836324      5.0484337562412076      3.0874199999999998
   249   1      60.520303505836324      5.0484337562412076      7.1900700000000004
   250   1      60.520303505836324      5.0484337562412076      11.292730000000001
   251   1      45.677477916437937      33.881450164296758      14.287419999999999
   252   1      45.677477916437937      33.881450164296758      18.390070000000001
   253   1      45.677477916437937      33.881450164296758      22.492730000000002
   254   1      17.213311520555262       53.46466839078608      3.0874199999999998
   255   1      31.322958700610371      32.907551849462415      22.492730000000002
   256   1      28.889831085883809      36.070305088928791      14.287419999999999
   257   1      28.889831085883809      36.070305088928791      18.390070000000001
   258   1      14.050440606912048      55.897646016665476      3.0874199999999998
   259   1      14.050440606912048      55.897646016665476      7.1900700000000004
   260   1      14.050440606912048      55.897646016665476      11.292730000000001
   261   1      10.887569693268835      58.330623642544872      3.0874199999999998
   262   1      33.756092412444545      29.744806536235934      14.287419999999999
   263   1      20.376182434198476      51.031690764906685      3.0874199999999998
   264   1      20.376182434198476      51.031690764906685      7.1900700000000004
   265   1      20.376182434198476      51.031690764906685      11.292730000000001
   266   1      28.889831085883809      36.070305088928791      22.492730000000002
   267   1      26.456697374049632      39.233050402155257      14.287419999999999
   268   1      26.456697374049632      39.233050402155257      18.390070000000001
   269   1      26.456697374049632      39.233050402155257      22.492730000000002
   270   1      31.322958700610371      32.907551849462415      18.390070000000001
   271   1      17.213311520555262       53.46466839078608      7.1900700000000004
   272   1      17.213311520555262       53.46466839078608      11.292730000000001
   273   1      21.590428121249005      45.558555051955722      14.287419999999999
   274   1      21.590428121249005      45.558555051955722      18.390070000000001
   275   1      21.590428121249005      45.558555051955722      22.492730000000002
   276   1      19.157300506522443      48.721308291422098      14.287419999999999
   277   1      19.157300506522443      48.721308291422098      18.390070000000001
   278   1      24.023561833083175      42.395809738729241      14.287419999999999
   279   1      24.023561833083175      42.395809738729241      18.390070000000001
   280   1      24.023561833083175      42.395809738729241      22.492730000000002
   281   1      23.539053347841691      48.598713139027289      7.1900700000000004
   282   1      23.539053347841691      48.598713139027289      11.292730000000001
   283   1      19.157300506522443      48.721308291422098      22.492730000000002
   284   1      16.724166794688266      51.884053604648571      14.287419999999999
   285   1      16.724166794688266      51.884053604648571      18.390070000000001
   286   1      41.055489279971738      20.256548646969105      22.492730000000002
   287   1      59.060518759440967      16.240116811938933      11.292730000000001
   288   1      43.488622991805904      17.093803333742624      14.287419999999999
   289   1      43.488622991805904      17.093803333742624      18.390070000000001
   290   1      43.488622991805904      17.093803333742624      22.492730000000002
   291   1      48.354892244606539       10.76829868394217      22.492730000000002
   292   1      45.921758532772365      13.931043997168647      14.287419999999999
   293   1      45.921758532772365      13.931043997168647      18.390070000000001
   294   1      45.921758532772365      13.931043997168647      22.492730000000002
   295   1        65.3862526604875      11.374167657287748      3.0874199999999998
   296   1        65.3862526604875      11.374167657287748      7.1900700000000004
   297   1      7.7246987796256228      60.763601268424267      3.0874199999999998
   298   1      7.7246987796256228      60.763601268424267      7.1900700000000004
   299   1      7.7246987796256228      60.763601268424267      11.292730000000001
   300   1      41.055489279971738      20.256548646969105      14.287419999999999
   301   1      41.055489279971738      20.256548646969105      18.390070000000001
   302   1      16.724166794688266      51.884053604648571      22.492730000000002
   303   1      38.622361665245172       23.41930188643548      14.287419999999999
   304   1      38.622361665245172       23.41930188643548      18.390070000000001
   305   1      4.5618278659824103      63.196578894303663      3.0874199999999998
   306   1      4.5618278659824103      63.196578894303663      7.1900700000000004
   307   1      4.5618278659824103      63.196578894303663      11.292730000000001
   308   1      33.756092412444545      29.744806536235934      18.390070000000001
   309   1      33.756092412444545      29.744806536235934      22.492730000000002
   310   1      38.622361665245172       23.41930188643548      22.492730000000002
   311   1      36.189227953410999      26.582047199661957      14.287419999999999
   312   1      36.189227953410999      26.582047199661957      18.390070000000001
   313   1      36.189227953410999      26.582047199661957      22.492730000000002
   314   1      10.887569693268835      58.330623642544872      7.1900700000000004
   315   1      10.887569693268835      58.330623642544872      11.292730000000001
   316   1      31.322958700610371      32.907551849462415      14.287419999999999
   317   1      40.325877678579431      14.660669621908458      22.492730000000002
   318   1      39.353399989817873      36.433831106737919      7.1900700000000004
   319   1      39.353399989817873      36.433831106737919      11.292730000000001
   320   1      36.190529076174656      38.866808732617315      3.0874199999999998
   321   1       45.19213900514017      8.3351710692156029      22.492730000000002
   322   1      42.759005293305997      11.497916382442087      14.287419999999999
   323   1      42.759005293305997      11.497916382442087      18.390070000000001
   324   1      42.759005293305997      11.497916382442087      22.492730000000002
   325   1      42.516270903461084      34.000853480858524      3.0874199999999998
   326   1      42.516270903461084      34.000853480858524      7.1900700000000004
   327   1      42.516270903461084      34.000853480858524      11.292730000000001
   328   1      47.625266619866728      5.1724178297492331      14.287419999999999
   329   1      47.625266619866728      5.1724178297492331      18.390070000000001
   330   1      48.842012730747513      29.134898229099729      3.0874199999999998
   331   1      40.325877678579431      14.660669621908458      14.287419999999999
   332   1      40.325877678579431      14.660669621908458      18.390070000000001
   333   1      39.353399989817873      36.433831106737919      3.0874199999999998
   334   1      48.842012730747513      29.134898229099729      7.1900700000000004
   335   1      48.842012730747513      29.134898229099729      11.292730000000001
   336   1      45.679141817104295      31.567875854979128      3.0874199999999998
   337   1      45.679141817104295      31.567875854979128      7.1900700000000004
   338   1      45.679141817104295      31.567875854979128      11.292730000000001
   339   1       33.02647471394463      24.148919584935395      14.287419999999999
   340   1       33.02647471394463      24.148919584935395      18.390070000000001
   341   1       33.02647471394463      24.148919584935395      22.492730000000002
   342   1      37.892743966745257      17.823414935134931      14.287419999999999
   343   1      37.892743966745257      17.823414935134931      18.390070000000001
   344   1      37.892743966745257      17.823414935134931      22.492730000000002
   345   1      35.459608425778796      20.986174271708911      14.287419999999999
   346   1      35.459608425778796      20.986174271708911      18.390070000000001
   347   1      52.004883644390723      26.701920603220334      3.0874199999999998
   348   1      52.004883644390723      26.701920603220334      7.1900700000000004
   349   1      9.4247699271610745      61.372311493915404      22.492730000000002
   350   1      26.701924261484905      46.165735513147894      3.0874199999999998
   351   1      26.701924261484905      46.165735513147894      7.1900700000000004
   352   1      26.701924261484905      46.165735513147894      11.292730000000001
   353   1      23.539053347841691      48.598713139027289      3.0874199999999998
   354   1       11.85789754188764      58.209558254449028      14.287419999999999
   355   1       11.85789754188764      58.209558254449028      18.390070000000001
   356   1       11.85789754188764      58.209558254449028      22.492730000000002
   357   1      9.4247699271610745      61.372311493915404      14.287419999999999