(written by ASE)

4920 atoms
3 atom types

0.0      57.133533858280416  xlo xhi
0.0      57.133533858280416  ylo yhi
0.0                      50  zlo zhi

Masses

     1       137.3269999646734 # Ba
     2      15.998999995884349 # O
     3      47.866999987686484 # Ti

Atoms # atomic

     1   1      24.037890854968076      44.940405886924758      3.0874199999999998
     2   1      24.873991540057983      41.038602689838548      11.292730000000001
     3   1      24.873991540057983      41.038602689838548      7.1900700000000004
     4   1      24.873991540057983      41.038602689838548      3.0874199999999998
     5   1      23.201790169878173      48.842209084010975      11.292730000000001
     6   1      23.201790169878173      48.842209084010975      7.1900700000000004
     7   1      23.201790169878173      48.842209084010975      3.0874199999999998
     8   1      26.546192910237785      33.234996295666122      11.292730000000001
     9   1      26.546192910237785      33.234996295666122      7.1900700000000004
    10   1      26.546192910237785      33.234996295666122      3.0874199999999998
    11   1      22.365691580079158      52.744002503073048      11.292730000000001
    12   1      22.365691580079158      52.744002503073048      7.1900700000000004
    13   1      22.365691580079158      52.744002503073048      3.0874199999999998
    14   1      29.333193098579908      1.1844798119106568      11.292730000000001
    15   1      29.333193098579908      1.1844798119106568      7.1900700000000004
    16   1      29.333193098579908      1.1844798119106568      3.0874199999999998
    17   1      4.6686936304471223      55.112920919506912      14.287419999999999
    18   1      54.694906196907034      35.185895798918345      11.292730000000001
    19   1      54.694906196907034      35.185895798918345      7.1900700000000004
    20   1      54.694906196907034      35.185895798918345      3.0874199999999998
    21   1      55.531006881996937      31.284092601832128      11.292730000000001
    22   1      55.531006881996937      31.284092601832128      7.1900700000000004
    23   1      55.531006881996937      31.284092601832128      3.0874199999999998
    24   1       56.36710756708684      27.382289404745915      11.292730000000001
    25   1       56.36710756708684      27.382289404745915      7.1900700000000004
    26   1       56.36710756708684      27.382289404745915      3.0874199999999998
    27   1      56.088407338723542      47.727406075266884      11.292730000000001
    28   1      56.088407338723542      47.727406075266884      7.1900700000000004
    29   1      56.088407338723542      47.727406075266884      3.0874199999999998
    30   1      56.924508023813445      43.825602878180668      11.292730000000001
    31   1      56.924508023813445      43.825602878180668      7.1900700000000004
    32   1      24.037890854968076      44.940405886924758      7.1900700000000004
    33   1      6.0620879124283764      42.571395976122147      18.390070000000001
    34   1      6.0620879124283764      42.571395976122147      14.287419999999999
    35   1      7.7343591256377593      50.374986306397773      22.492730000000002
    36   1      7.7343591256377593      50.374986306397773      18.390070000000001
    37   1      7.7343591256377593      50.374986306397773      14.287419999999999
    38   1      6.8982284080451368      46.473192188905408      22.492730000000002
    39   1      53.022704826727228      42.989502193090765      11.292730000000001
    40   1      53.022704826727228      42.989502193090765      7.1900700000000004
    41   1      53.022704826727228      42.989502193090765      3.0874199999999998
    42   1        8.57048984323038      54.276780423890152      22.492730000000002
    43   1        8.57048984323038      54.276780423890152      18.390070000000001
    44   1        8.57048984323038      54.276780423890152      14.287419999999999
    45   1     0.48803235975076692      35.603938458730035      22.492730000000002
    46   1     0.48803235975076692      35.603938458730035      18.390070000000001
    47   1     0.48803235975076692      35.603938458730035      14.287419999999999
    48   1      2.1602916996451209      43.407536471738915      14.287419999999999
    49   1      4.3898264772431332      34.767807741137418      22.492730000000002
    50   1      4.3898264772431332      34.767807741137418      18.390070000000001
    51   1      4.3898264772431332      34.767807741137418      14.287419999999999
    52   1      3.5536859816263742      30.866011528354164      22.492730000000002
    53   1      51.350503456547422      50.793108587263191      11.292730000000001
    54   1      51.350503456547422      50.793108587263191      7.1900700000000004
    55   1      51.350503456547422      50.793108587263191      3.0874199999999998
    56   1      52.186604141637325      46.891305390176981      11.292730000000001
    57   1      52.186604141637325      46.891305390176981      7.1900700000000004
    58   1      52.186604141637325      46.891305390176981      3.0874199999999998
    59   1      5.2259571948357557      38.669601858629782      22.492730000000002
    60   1      5.2259571948357557      38.669601858629782      18.390070000000001
    61   1      5.2259571948357557      38.669601858629782      14.287419999999999
    62   1      6.8982284080451368      46.473192188905408      18.390070000000001
    63   1      6.8982284080451368      46.473192188905408      14.287419999999999
    64   1      6.0620879124283764      42.571395976122147      22.492730000000002
    65   1       1.045284050824369      19.160627080586174      18.390070000000001
    66   1       1.045284050824369      19.160627080586174      14.287419999999999
    67   1     0.20915333323174876      15.258832963093804      22.492730000000002
    68   1     0.20915333323174876      15.258832963093804      18.390070000000001
    69   1     0.20915333323174876      15.258832963093804      14.287419999999999
    70   1      50.514402771457519      54.694911784349408      11.292730000000001
    71   1      50.514402771457519      54.694911784349408      7.1900700000000004
    72   1      50.514402771457519      54.694911784349408      3.0874199999999998
    73   1       1.881424546441131      23.062423293369427      22.492730000000002
    74   1       1.881424546441131      23.062423293369427      18.390070000000001
    75   1       1.881424546441131      23.062423293369427      14.287419999999999
    76   1      3.5536859816263742      30.866011528354164      18.390070000000001
    77   1      3.5536859816263742      30.866011528354164      14.287419999999999
    78   1      2.7175552640337526      26.964217410861796      22.492730000000002
    79   1      2.7175552640337526      26.964217410861796      18.390070000000001
    80   1      2.7175552640337526      26.964217410861796      14.287419999999999
    81   1      9.9638820299207413       41.73526525852953      22.492730000000002
    82   1      9.9638820299207413       41.73526525852953      18.390070000000001
    83   1      9.9638820299207413       41.73526525852953      14.287419999999999
    84   1      10.800022525537504      45.637061471312784      22.492730000000002
    85   1      10.800022525537504      45.637061471312784      18.390070000000001
    86   1      10.800022525537504      45.637061471312784      14.287419999999999
    87   1      56.645805700159265      7.0371825122490907      11.292730000000001
    88   1      56.645805700159265      7.0371825122490907      7.1900700000000004
    89   1      56.645805700159265      7.0371825122490907      3.0874199999999998
    90   1      12.472283960722747      53.440649706297521      22.492730000000002
    91   1      12.472283960722747      53.440649706297521      18.390070000000001
    92   1      12.472283960722747      53.440649706297521      14.287419999999999
    93   1      11.636153243130124      49.538855588805156      22.492730000000002
    94   1      11.636153243130124      49.538855588805156      18.390070000000001
    95   1      11.636153243130124      49.538855588805156      14.287419999999999
    96   1       1.045284050824369      19.160627080586174      22.492730000000002
    97   1      7.4554800991187404       30.02988081076154      14.287419999999999
    98   1      54.137505740180444      18.742582325483589      11.292730000000001
    99   1      54.137505740180444      18.742582325483589      7.1900700000000004
   100   1      54.137505740180444      18.742582325483589      3.0874199999999998
   101   1      54.973606425270347      14.840779128397376      11.292730000000001
   102   1      54.973606425270347      14.840779128397376      7.1900700000000004
   103   1      54.973606425270347      14.840779128397376      3.0874199999999998
   104   1      55.809705015069362      10.938985709335304      11.292730000000001
   105   1      55.809705015069362      10.938985709335304      7.1900700000000004
   106   1      55.809705015069362      10.938985709335304      3.0874199999999998
   107   1      9.1277513123281242      37.833471141037165      22.492730000000002
   108   1      9.1277513123281242      37.833471141037165      18.390070000000001
   109   1      9.1277513123281242      37.833471141037165      14.287419999999999
   110   1      8.2916205947355017        33.9316770235448      22.492730000000002
   111   1      8.2916205947355017        33.9316770235448      18.390070000000001
   112   1      8.2916205947355017        33.9316770235448      14.287419999999999
   113   1      4.1109474507241162      14.422702245501183      18.390070000000001
   114   1      4.1109474507241162      14.422702245501183      14.287419999999999
   115   1      53.301405055090541      22.644385522569802      11.292730000000001
   116   1      53.301405055090541      22.644385522569802      7.1900700000000004
   117   1      53.301405055090541      22.644385522569802      3.0874199999999998
   118   1      5.7832186639334981      22.226292575776807      22.492730000000002
   119   1      5.7832186639334981      22.226292575776807      18.390070000000001
   120   1      5.7832186639334981      22.226292575776807      14.287419999999999
   121   1      4.9470781683167386       18.32449636299355      22.492730000000002
   122   1      4.9470781683167386       18.32449636299355      18.390070000000001
   123   1      4.9470781683167386       18.32449636299355      14.287419999999999
   124   1      6.6193493815261206      26.128086693269172      22.492730000000002
   125   1      6.6193493815261206      26.128086693269172      18.390070000000001
   126   1      6.6193493815261206      26.128086693269172      14.287419999999999
   127   1      7.4554800991187404       30.02988081076154      22.492730000000002
   128   1      7.4554800991187404       30.02988081076154      18.390070000000001
   129   1      17.210218573831874      56.506315201488157      22.492730000000002
   130   1      17.210218573831874      56.506315201488157      18.390070000000001
   131   1      17.210218573831874      56.506315201488157      14.287419999999999
   132   1      52.465304370000638      26.546188719656016      11.292730000000001
   133   1      52.465304370000638      26.546188719656016      7.1900700000000004
   134   1      52.465304370000638      26.546188719656016      3.0874199999999998
   135   1      2.4386860155388757       6.619114010516447      22.492730000000002
   136   1      2.4386860155388757       6.619114010516447      18.390070000000001
   137   1      2.4386860155388757       6.619114010516447      14.287419999999999
   138   1      1.6025476152130012      2.7173080197090509      22.492730000000002
   139   1      1.6025476152130012      2.7173080197090509      18.390070000000001
   140   1      1.6025476152130012      2.7173080197090509      14.287419999999999
   141   1      3.2748167331314955      10.520908128008815      22.492730000000002
   142   1      3.2748167331314955      10.520908128008815      18.390070000000001
   143   1      3.2748167331314955      10.520908128008815      14.287419999999999
   144   1      4.1109474507241162      14.422702245501183      22.492730000000002
   145   1      13.865676147413112      40.899134540936913      14.287419999999999
   146   1      50.793102999820832      34.349795113828442      11.292730000000001
   147   1      50.793102999820832      34.349795113828442      7.1900700000000004
   148   1      50.793102999820832      34.349795113828442      3.0874199999999998
   149   1      51.629203684910735      30.447991916742229      11.292730000000001
   150   1      51.629203684910735      30.447991916742229      7.1900700000000004
   151   1      51.629203684910735      30.447991916742229      3.0874199999999998
   152   1      15.537947360622496      48.702724871212531      22.492730000000002
   153   1      15.537947360622496      48.702724871212531      18.390070000000001
   154   1      15.537947360622496      48.702724871212531      14.287419999999999
   155   1      14.701816643029874      44.800930753720166      22.492730000000002
   156   1      14.701816643029874      44.800930753720166      18.390070000000001
   157   1      14.701816643029874      44.800930753720166      14.287419999999999
   158   1      16.374078078215113      52.604518988704903      22.492730000000002
   159   1      16.374078078215113      52.604518988704903      18.390070000000001
   160   1      16.374078078215113      52.604518988704903      14.287419999999999
   161   1      10.521145594309376      25.291946197652411      18.390070000000001
   162   1      10.521145594309376      25.291946197652411      14.287419999999999
   163   1      49.957002314730929      38.251598310914652      11.292730000000001
   164   1      49.957002314730929      38.251598310914652      7.1900700000000004
   165   1      49.957002314730929      38.251598310914652      3.0874199999999998
   166   1      12.193414712227872      33.095546305952176      22.492730000000002
   167   1      12.193414712227872      33.095546305952176      18.390070000000001
   168   1      12.193414712227872      33.095546305952176      14.287419999999999
   169   1      11.357276311901998       29.19374031514478      22.492730000000002
   170   1      11.357276311901998       29.19374031514478      18.390070000000001
   171   1      11.357276311901998       29.19374031514478      14.287419999999999
   172   1      13.029545429820491      36.997340423444541      22.492730000000002
   173   1      13.029545429820491      36.997340423444541      18.390070000000001
   174   1      13.029545429820491      36.997340423444541      14.287419999999999
   175   1      13.865676147413112      40.899134540936913      22.492730000000002
   176   1      13.865676147413112      40.899134540936913      18.390070000000001
   177   1      7.1766129459147514      9.6847676323920524      22.492730000000002
   178   1      7.1766129459147514      9.6847676323920524      18.390070000000001
   179   1      7.1766129459147514      9.6847676323920524      14.287419999999999
   180   1      49.120901629641025      42.153401508000869      11.292730000000001
   181   1      49.120901629641025      42.153401508000869      7.1900700000000004
   182   1      49.120901629641025      42.153401508000869      3.0874199999999998
   183   1      8.8488841591241343      17.488357962667678      22.492730000000002
   184   1      8.8488841591241343      17.488357962667678      18.390070000000001
   185   1      8.8488841591241343      17.488357962667678      14.287419999999999
   186   1      8.0127436635073721      13.586561749884423      22.492730000000002
   187   1      8.0127436635073721      13.586561749884423      18.390070000000001
   188   1      8.0127436635073721      13.586561749884423      14.287419999999999
   189   1       9.685014876716755      21.390152080160046      22.492730000000002
   190   1       9.685014876716755      21.390152080160046      18.390070000000001
   191   1       9.685014876716755      21.390152080160046      14.287419999999999
   192   1      10.521145594309376      25.291946197652411      22.492730000000002
   193   1       19.43974357340575      47.866584375595778      14.287419999999999
   194   1      21.112012691324242       55.67018448389554      22.492730000000002
   195   1      21.112012691324242       55.67018448389554      18.390070000000001
   196   1      21.112012691324242       55.67018448389554      14.287419999999999
   197   1      47.448700259461219      49.957007902173288      11.292730000000001
   198   1      47.448700259461219      49.957007902173288      7.1900700000000004
   199   1      47.448700259461219      49.957007902173288      3.0874199999999998
   200   1      48.284800944551122      46.055204705087078      11.292730000000001
   201   1      48.284800944551122      46.055204705087078      7.1900700000000004
   202   1      48.284800944551122      46.055204705087078      3.0874199999999998
   203   1      6.3404822283221307      5.7829735148996848      22.492730000000002
   204   1      6.3404822283221307      5.7829735148996848      18.390070000000001
   205   1      6.3404822283221307      5.7829735148996848      14.287419999999999
   206   1      5.5043417327053694      1.8811773021164298      22.492730000000002
   207   1      5.5043417327053694      1.8811773021164298      18.390070000000001
   208   1      5.5043417327053694      1.8811773021164298      14.287419999999999
   209   1      16.095210925011127      32.259405810335416      18.390070000000001
   210   1      16.095210925011127      32.259405810335416      14.287419999999999
   211   1      17.767472360196368      40.062994045320153      22.492730000000002
   212   1      17.767472360196368      40.062994045320153      18.390070000000001
   213   1      17.767472360196368      40.062994045320153      14.287419999999999
   214   1      46.612599574371316      53.858811099259505      11.292730000000001
   215   1      46.612599574371316      53.858811099259505      7.1900700000000004
   216   1      46.612599574371316      53.858811099259505      3.0874199999999998
   217   1      18.603612855813132      43.964790258103406      22.492730000000002
   218   1      18.603612855813132      43.964790258103406      18.390070000000001
   219   1      18.603612855813132      43.964790258103406      14.287419999999999
   220   1       20.27587429099837      51.768378493088143      22.492730000000002
   221   1       20.27587429099837      51.768378493088143      18.390070000000001
   222   1       20.27587429099837      51.768378493088143      14.287419999999999
   223   1       19.43974357340575      47.866584375595778      22.492730000000002
   224   1       19.43974357340575      47.866584375595778      18.390070000000001
   225   1      12.750678276616503      16.652227245075057      22.492730000000002
   226   1      12.750678276616503      16.652227245075057      18.390070000000001
   227   1      12.750678276616503      16.652227245075057      14.287419999999999
   228   1      14.422939711801746      24.455815480059794      22.492730000000002
   229   1      14.422939711801746      24.455815480059794      18.390070000000001
   230   1      14.422939711801746      24.455815480059794      14.287419999999999
   231   1      53.580103188162951       2.299278630072974      11.292730000000001
   232   1      53.580103188162951       2.299278630072974      7.1900700000000004
   233   1      53.580103188162951       2.299278630072974      3.0874199999999998
   234   1      15.259070429394368      28.357609597552159      22.492730000000002
   235   1      15.259070429394368      28.357609597552159      18.390070000000001
   236   1      15.259070429394368      28.357609597552159      14.287419999999999
   237   1      16.931341642603748      36.161199927827781      22.492730000000002
   238   1      16.931341642603748      36.161199927827781      18.390070000000001
   239   1      16.931341642603748      36.161199927827781      14.287419999999999
   240   1      16.095210925011127      32.259405810335416      22.492730000000002
   241   1      10.242276345814499      4.9468427973070641      14.287419999999999
   242   1      9.4061358501977352      1.0450465845238086      22.492730000000002
   243   1      9.4061358501977352      1.0450465845238086      18.390070000000001
   244   1      9.4061358501977352      1.0450465845238086      14.287419999999999
   245   1      11.078407063407122      8.8486369147994317      22.492730000000002
   246   1      11.078407063407122      8.8486369147994317      18.390070000000001
   247   1      11.078407063407122      8.8486369147994317      14.287419999999999
   248   1      52.744002503073048      6.2010818271591877      11.292730000000001
   249   1      52.744002503073048      6.2010818271591877      7.1900700000000004
   250   1      52.744002503073048      6.2010818271591877      3.0874199999999998
   251   1      11.914537780999741        12.7504310322918      22.492730000000002
   252   1      11.914537780999741        12.7504310322918      18.390070000000001
   253   1      11.914537780999741        12.7504310322918      14.287419999999999
   254   1      13.586808994209123      20.554021362567426      22.492730000000002
   255   1      13.586808994209123      20.554021362567426      18.390070000000001
   256   1      13.586808994209123      20.554021362567426      14.287419999999999
   257   1      23.341537690898122      47.030453658003154      18.390070000000001
   258   1      23.341537690898122      47.030453658003154      14.287419999999999
   259   1      22.505406973305497      43.128659540510789      22.492730000000002
   260   1      22.505406973305497      43.128659540510789      18.390070000000001
   261   1      22.505406973305497      43.128659540510789      14.287419999999999
   262   1      51.907901817983145      10.102885024245401      11.292730000000001
   263   1      51.907901817983145      10.102885024245401      7.1900700000000004
   264   1      51.907901817983145      10.102885024245401      3.0874199999999998
   265   1      24.177668408490735      50.932247775495526      22.492730000000002
   266   1      24.177668408490735      50.932247775495526      18.390070000000001
   267   1      24.177668408490735      50.932247775495526      14.287419999999999
   268   1      25.013808904107503      54.834043988278779      22.492730000000002
   269   1      25.013808904107503      54.834043988278779      18.390070000000001
   270   1      25.013808904107503      54.834043988278779      14.287419999999999
   271   1      10.242276345814499      4.9468427973070641      22.492730000000002
   272   1      10.242276345814499      4.9468427973070641      18.390070000000001
   273   1      19.160874324910875      27.521480975250427      22.492730000000002
   274   1      19.160874324910875      27.521480975250427      18.390070000000001
   275   1      19.160874324910875      27.521480975250427      14.287419999999999
   276   1      50.235702543094227      17.906481640393686      11.292730000000001
   277   1      50.235702543094227      17.906481640393686      7.1900700000000004
   278   1      50.235702543094227      17.906481640393686      3.0874199999999998
   279   1       51.07180322818413      14.004678443307473      11.292730000000001
   280   1       51.07180322818413      14.004678443307473      7.1900700000000004
   281   1       51.07180322818413      14.004678443307473      3.0874199999999998
   282   1      20.833135760096116      35.325069210235164      22.492730000000002
   283   1      20.833135760096116      35.325069210235164      18.390070000000001
   284   1      20.833135760096116      35.325069210235164      14.287419999999999
   285   1      21.669266477688737      39.226863327727528      22.492730000000002
   286   1      21.669266477688737      39.226863327727528      18.390070000000001
   287   1      21.669266477688737      39.226863327727528      14.287419999999999
   288   1      23.341537690898122      47.030453658003154      22.492730000000002
   289   1      16.652472394108869      15.816096527482435      14.287419999999999
   290   1      15.816331898492107      11.914300314699179      22.492730000000002
   291   1      15.816331898492107      11.914300314699179      18.390070000000001
   292   1      15.816331898492107      11.914300314699179      14.287419999999999
   293   1       17.48860311170149      19.717890644974805      22.492730000000002
   294   1       17.48860311170149      19.717890644974805      18.390070000000001
   295   1       17.48860311170149      19.717890644974805      14.287419999999999
   296   1      49.399601858004324      21.808284837479899      11.292730000000001
   297   1      49.399601858004324      21.808284837479899      7.1900700000000004
   298   1      49.399601858004324      21.808284837479899      3.0874199999999998
   299   1      18.324733829294111      23.619684762467173      22.492730000000002
   300   1      18.324733829294111      23.619684762467173      18.390070000000001
   301   1      18.324733829294111      23.619684762467173      14.287419999999999
   302   1      19.997005042503496      31.423275092742792      22.492730000000002
   303   1      19.997005042503496      31.423275092742792      18.390070000000001
   304   1      19.997005042503496      31.423275092742792      14.287419999999999
   305   1      28.915603021599868      53.997913270686162      18.390070000000001
   306   1      28.915603021599868      53.997913270686162      14.287419999999999
   307   1      48.563501172914421      25.710088034566112      11.292730000000001
   308   1      48.563501172914421      25.710088034566112      7.1900700000000004
   309   1      48.563501172914421      25.710088034566112      3.0874199999999998
   310   1      14.144070463306868      4.1107120797144434      22.492730000000002
   311   1      14.144070463306868      4.1107120797144434      18.390070000000001
   312   1      14.144070463306868      4.1107120797144434      14.287419999999999
   313   1      13.307929967690105      0.2089158669311883      22.492730000000002
   314   1      13.307929967690105      0.2089158669311883      18.390070000000001
   315   1      13.307929967690105      0.2089158669311883      14.287419999999999
   316   1      14.980201180899488       8.012506197206811      22.492730000000002
   317   1      14.980201180899488       8.012506197206811      18.390070000000001
   318   1      14.980201180899488       8.012506197206811      14.287419999999999
   319   1      16.652472394108869      15.816096527482435      22.492730000000002
   320   1      16.652472394108869      15.816096527482435      18.390070000000001
   321   1      25.571060595181109      38.390732610134911      18.390070000000001
   322   1      25.571060595181109      38.390732610134911      14.287419999999999
   323   1      46.891299802734615      33.513694428738539      11.292730000000001
   324   1      46.891299802734615      33.513694428738539      7.1900700000000004
   325   1      46.891299802734615      33.513694428738539      3.0874199999999998
   326   1      47.727400487824518      29.611891231652326      11.292730000000001
   327   1      47.727400487824518      29.611891231652326      7.1900700000000004
   328   1      47.727400487824518      29.611891231652326      3.0874199999999998
   329   1      27.243331808390487      46.194322940410537      22.492730000000002
   330   1      27.243331808390487      46.194322940410537      18.390070000000001
   331   1      27.243331808390487      46.194322940410537      14.287419999999999
   332   1      26.407201090797866      42.292528822918165      22.492730000000002
   333   1      28.079462525983104      50.096117057902902      22.492730000000002
   334   1      28.079462525983104      50.096117057902902      18.390070000000001
   335   1      28.079462525983104      50.096117057902902      14.287419999999999
   336   1      28.915603021599868      53.997913270686162      22.492730000000002
   337   1      22.226527946786479      22.783554044874549      22.492730000000002
   338   1      22.226527946786479      22.783554044874549      18.390070000000001
   339   1      22.226527946786479      22.783554044874549      14.287419999999999
   340   1       23.89879915999586      30.587144375150174      22.492730000000002
   341   1       23.89879915999586      30.587144375150174      18.390070000000001
   342   1       23.89879915999586      30.587144375150174      14.287419999999999
   343   1       23.06266844240324      26.685350257657806      22.492730000000002
   344   1      46.055199117644712      37.415497625824749      11.292730000000001
   345   1      46.055199117644712      37.415497625824749      7.1900700000000004
   346   1      46.055199117644712      37.415497625824749      3.0874199999999998
   347   1      24.734929877588485      34.488938492642539      22.492730000000002
   348   1      24.734929877588485      34.488938492642539      18.390070000000001
   349   1      24.734929877588485      34.488938492642539      14.287419999999999
   350   1      26.407201090797866      42.292528822918165      18.390070000000001
   351   1      26.407201090797866      42.292528822918165      14.287419999999999
   352   1      25.571060595181109      38.390732610134911      22.492730000000002
   353   1      19.718128111275366      11.078159819082419      14.287419999999999
   354   1      18.881997393682742      7.1763657015900497      22.492730000000002
   355   1      18.881997393682742      7.1763657015900497      18.390070000000001
   356   1      18.881997393682742      7.1763657015900497      14.287419999999999
   357   1      45.219098432554809      41.317300822910966      11.292730000000001