(written by ASE)

2424 atoms
3 atom types

0.0      40.102813586875932  xlo xhi
0.0      40.102813586875932  ylo yhi
0.0                      50  zlo zhi

Masses

     1       137.3269999646734 # Ba
     2      15.998999995884349 # O
     3      47.866999987686484 # Ti

Atoms # atomic

     1   1      18.165383023878519      28.885938587130696      3.0874199999999998
     2   1      17.371267723264495      36.827091593270964      11.292730000000001
     3   1      17.371267723264495      36.827091593270964      7.1900700000000004
     4   1      17.371267723264495      36.827091593270964      3.0874199999999998
     5   1      17.768325373571507       32.85651509020083      11.292730000000001
     6   1      17.768325373571507       32.85651509020083      7.1900700000000004
     7   1      17.768325373571507       32.85651509020083      3.0874199999999998
     8   1      18.562440674185535      24.915362084060561      11.292730000000001
     9   1      18.562440674185535      24.915362084060561      7.1900700000000004
    10   1      18.562440674185535      24.915362084060561      3.0874199999999998
    11   1      16.974209077920289     0.69485536570462947      3.0874199999999998
    12   1      16.577152422650464      4.6654219184028642      11.292730000000001
    13   1      16.577152422650464      4.6654219184028642      7.1900700000000004
    14   1      16.577152422650464      4.6654219184028642      3.0874199999999998
    15   1      16.974209077920289     0.69485536570462947      11.292730000000001
    16   1      16.974209077920289     0.69485536570462947      7.1900700000000004
    17   1     0.49559518821631898      35.040342117261311      14.287419999999999
    18   1    0.098623111107663447      31.069756658856463      22.492730000000002
    19   1    0.098623111107663447      31.069756658856463      18.390070000000001
    20   1    0.098623111107663447      31.069756658856463      14.287419999999999
    21   1      37.621207888922186      34.841803341735897      11.292730000000001
    22   1      37.621207888922186      34.841803341735897      7.1900700000000004
    23   1      37.621207888922186      34.841803341735897      3.0874199999999998
    24   1      38.018265539229198      30.871226838665763      11.292730000000001
    25   1      38.018265539229198      30.871226838665763      7.1900700000000004
    26   1      38.018265539229198      30.871226838665763      3.0874199999999998
    27   1      39.606496140457253      14.988920826385218      11.292730000000001
    28   1      39.606496140457253      14.988920826385218      7.1900700000000004
    29   1      39.606496140457253      14.988920826385218      3.0874199999999998
    30   1      40.003553790764265      11.018344323315082      11.292730000000001
    31   1      40.003553790764265      11.018344323315082      7.1900700000000004
    32   1      18.165383023878519      28.885938587130696      7.1900700000000004
    33   1      2.0843272881882391      10.819865250021087      18.390070000000001
    34   1      2.0843272881882391      10.819865250021087      14.287419999999999
    35   1       36.43003493800115      6.6507101699379323      11.292730000000001
    36   1       36.43003493800115      6.6507101699379323      7.1900700000000004
    37   1       36.43003493800115      6.6507101699379323      3.0874199999999998
    38   1      36.827091593270971      2.6801436172396973      11.292730000000001
    39   1      36.827091593270971      2.6801436172396973      7.1900700000000004
    40   1      36.827091593270971      2.6801436172396973      3.0874199999999998
    41   1      2.8782823878146431      18.761027211496071      22.492730000000002
    42   1      2.8782823878146431      18.761027211496071      18.390070000000001
    43   1      2.8782823878146431      18.761027211496071      14.287419999999999
    44   1      2.4813003603340849      14.790440758054034      22.492730000000002
    45   1      3.2752544649232989      22.731612669900919      22.492730000000002
    46   1      3.2752544649232989      22.731612669900919      18.390070000000001
    47   1      3.2752544649232989      22.731612669900919      14.287419999999999
    48   1      4.0692085695125124      30.672784581747806      18.390070000000001
    49   1      8.0397850725826476      30.275801559230057      14.287419999999999
    50   1      8.8337391771718607       38.21697347107694      22.492730000000002
    51   1      8.8337391771718607       38.21697347107694      18.390070000000001
    52   1      8.8337391771718607       38.21697347107694      14.287419999999999
    53   1       1.290373183599026       2.878693338174199      22.492730000000002
    54   1       1.290373183599026       2.878693338174199      18.390070000000001
    55   1       1.290373183599026       2.878693338174199      14.287419999999999
    56   1      36.032977287694131      10.621286673008068      11.292730000000001
    57   1      36.032977287694131      10.621286673008068      7.1900700000000004
    58   1      36.032977287694131      10.621286673008068      3.0874199999999998
    59   1      1.6873552110795837      6.8492797916162376      22.492730000000002
    60   1      1.6873552110795837      6.8492797916162376      18.390070000000001
    61   1      1.6873552110795837      6.8492797916162376      14.287419999999999
    62   1      2.4813003603340849      14.790440758054034      18.390070000000001
    63   1      2.4813003603340849      14.790440758054034      14.287419999999999
    64   1      2.0843272881882391      10.819865250021087      22.492730000000002
    65   1      6.4518858187389343      14.393468680945377      18.390070000000001
    66   1      6.4518858187389343      14.393468680945377      14.287419999999999
    67   1      7.2458399233281456      22.334640592792265      22.492730000000002
    68   1      7.2458399233281456      22.334640592792265      18.390070000000001
    69   1      7.2458399233281456      22.334640592792265      14.287419999999999
    70   1      35.635919637387119      14.591863176078204      11.292730000000001
    71   1      35.635919637387119      14.591863176078204      7.1900700000000004
    72   1      35.635919637387119      14.591863176078204      3.0874199999999998
    73   1      7.6428120004368036      26.305226051197113      22.492730000000002
    74   1      7.6428120004368036      26.305226051197113      18.390070000000001
    75   1      7.6428120004368036      26.305226051197113      14.287419999999999
    76   1      8.4367671000632072      34.246388012672092      22.492730000000002
    77   1      8.4367671000632072      34.246388012672092      18.390070000000001
    78   1      8.4367671000632072      34.246388012672092      14.287419999999999
    79   1      8.0397850725826476      30.275801559230057      22.492730000000002
    80   1      8.0397850725826476      30.275801559230057      18.390070000000001
    81   1      5.6579406694844314      6.4523077145075822      22.492730000000002
    82   1      5.6579406694844314      6.4523077145075822      18.390070000000001
    83   1      5.6579406694844314      6.4523077145075822      14.287419999999999
    84   1      34.841804336773095      22.533016182218478      11.292730000000001
    85   1      34.841804336773095      22.533016182218478      7.1900700000000004
    86   1      34.841804336773095      22.533016182218478      3.0874199999999998
    87   1      35.238861987080107      18.562439679148341      11.292730000000001
    88   1      35.238861987080107      18.562439679148341      7.1900700000000004
    89   1      35.238861987080107      18.562439679148341      3.0874199999999998
    90   1      6.0549137416302781      10.422883222540529      22.492730000000002
    91   1      6.0549137416302781      10.422883222540529      18.390070000000001
    92   1      6.0549137416302781      10.422883222540529      14.287419999999999
    93   1      6.8488578958475905      18.364054139350223      22.492730000000002
    94   1      6.8488578958475905      18.364054139350223      18.390070000000001
    95   1      6.8488578958475905      18.364054139350223      14.287419999999999
    96   1      6.4518858187389343      14.393468680945377      22.492730000000002
    97   1      11.613398453878842      25.908244023716552      14.287419999999999
    98   1      12.407352558468055      33.849415935563442      18.390070000000001
    99   1      12.407352558468055      33.849415935563442      14.287419999999999
   100   1      12.010370530987496      29.878829482121404      22.492730000000002
   101   1      12.010370530987496      29.878829482121404      18.390070000000001
   102   1      12.010370530987496      29.878829482121404      14.287419999999999
   103   1      34.444746686466075      26.503592685288616      11.292730000000001
   104   1      34.444746686466075      26.503592685288616      7.1900700000000004
   105   1      34.444746686466075      26.503592685288616      3.0874199999999998
   106   1      12.804324635576711       37.82000139396829      22.492730000000002
   107   1      12.804324635576711       37.82000139396829      18.390070000000001
   108   1      12.804324635576711       37.82000139396829      14.287419999999999
   109   1      12.407352558468055      33.849415935563442      22.492730000000002
   110   1      5.2609586420038745      2.4817212610655437      22.492730000000002
   111   1      5.2609586420038745      2.4817212610655437      18.390070000000001
   112   1      5.2609586420038745      2.4817212610655437      14.287419999999999
   113   1      10.025499200035126      10.025911145431872      18.390070000000001
   114   1      10.025499200035126      10.025911145431872      14.287419999999999
   115   1      10.819443354252439       17.96708206224157      18.390070000000001
   116   1      10.819443354252439       17.96708206224157      14.287419999999999
   117   1      10.422471277143782      13.996496603836722      22.492730000000002
   118   1      10.422471277143782      13.996496603836722      18.390070000000001
   119   1      10.422471277143782      13.996496603836722      14.287419999999999
   120   1      34.047689036159063      30.474169188358751      11.292730000000001
   121   1      34.047689036159063      30.474169188358751      7.1900700000000004
   122   1      34.047689036159063      30.474169188358751      3.0874199999999998
   123   1      11.216426376770187      21.937658565311708      22.492730000000002
   124   1      11.216426376770187      21.937658565311708      18.390070000000001
   125   1      11.216426376770187      21.937658565311708      14.287419999999999
   126   1      10.819443354252439       17.96708206224157      22.492730000000002
   127   1      11.613398453878842      25.908244023716552      22.492730000000002
   128   1      11.613398453878842      25.908244023716552      18.390070000000001
   129   1      16.774911089018747      37.423019366487729      22.492730000000002
   130   1      16.774911089018747      37.423019366487729      18.390070000000001
   131   1      16.774911089018747      37.423019366487729      14.287419999999999
   132   1      33.253573735545039      38.415322194499019      11.292730000000001
   133   1      33.253573735545039      38.415322194499019      7.1900700000000004
   134   1      33.253573735545039      38.415322194499019      3.0874199999999998
   135   1      33.650631385852051      34.444745691428885      11.292730000000001
   136   1      33.650631385852051      34.444745691428885      7.1900700000000004
   137   1      33.650631385852051      34.444745691428885      3.0874199999999998
   138   1      9.6285171725545684       6.055324691989834      22.492730000000002
   139   1      9.6285171725545684       6.055324691989834      18.390070000000001
   140   1      9.6285171725545684       6.055324691989834      14.287419999999999
   141   1      9.2315450954459131      2.0847392335849859      22.492730000000002
   142   1      9.2315450954459131      2.0847392335849859      18.390070000000001
   143   1      9.2315450954459131      2.0847392335849859      14.287419999999999
   144   1      10.025499200035126      10.025911145431872      22.492730000000002
   145   1      14.790029807694475      17.570100034761012      14.287419999999999
   146   1      15.583983912283692      25.511271946607899      22.492730000000002
   147   1      15.583983912283692      25.511271946607899      18.390070000000001
   148   1      15.583983912283692      25.511271946607899      14.287419999999999
   149   1      15.187001884803131       21.54068549316586      22.492730000000002
   150   1      15.187001884803131       21.54068549316586      18.390070000000001
   151   1      15.187001884803131       21.54068549316586      14.287419999999999
   152   1      32.856515090200837       2.283085966932684      11.292730000000001
   153   1      32.856515090200837       2.283085966932684      7.1900700000000004
   154   1      32.856515090200837       2.283085966932684      3.0874199999999998
   155   1      15.980955989392347      29.481857405012747      22.492730000000002
   156   1      15.980955989392347      29.481857405012747      18.390070000000001
   157   1      15.980955989392347      29.481857405012747      14.287419999999999
   158   1      16.377928066501003      33.452442863417595      22.492730000000002
   159   1      16.377928066501003      33.452442863417595      18.390070000000001
   160   1      16.377928066501003      33.452442863417595      14.287419999999999
   161   1      13.202130553850761      1.6877671564763304      18.390070000000001
   162   1      13.202130553850761      1.6877671564763304      14.287419999999999
   163   1      32.459458434931015      6.2536525196309185      11.292730000000001
   164   1      32.459458434931015      6.2536525196309185      7.1900700000000004
   165   1      32.459458434931015      6.2536525196309185      3.0874199999999998
   166   1      13.996074708068072      9.6289380732860277      22.492730000000002
   167   1      13.996074708068072      9.6289380732860277      18.390070000000001
   168   1      13.996074708068072      9.6289380732860277      14.287419999999999
   169   1      13.599102630959417      5.6583526148811787      22.492730000000002
   170   1      13.599102630959417      5.6583526148811787      18.390070000000001
   171   1      13.599102630959417      5.6583526148811787      14.287419999999999
   172   1      14.393056735548631      13.599524526728064      22.492730000000002
   173   1      14.393056735548631      13.599524526728064      18.390070000000001
   174   1      14.393056735548631      13.599524526728064      14.287419999999999
   175   1      14.790029807694475      17.570100034761012      22.492730000000002
   176   1      14.790029807694475      17.570100034761012      18.390070000000001
   177   1      31.665343134316984      14.194805525771191      11.292730000000001
   178   1      31.665343134316984      14.194805525771191      7.1900700000000004
   179   1      31.665343134316984      14.194805525771191      3.0874199999999998
   180   1      32.062400784623996      10.224229022701055      11.292730000000001
   181   1      32.062400784623996      10.224229022701055      7.1900700000000004
   182   1      32.062400784623996      10.224229022701055      3.0874199999999998
   183   1      20.348514519943041      33.055460835937041      22.492730000000002
   184   1      20.348514519943041      33.055460835937041      18.390070000000001
   185   1      20.348514519943041      33.055460835937041      14.287419999999999
   186   1      19.951542442834388      29.084875377532189      22.492730000000002
   187   1      19.951542442834388      29.084875377532189      18.390070000000001
   188   1      19.951542442834388      29.084875377532189      14.287419999999999
   189   1      20.745486597051695      37.026046294341882      22.492730000000002
   190   1      20.745486597051695      37.026046294341882      18.390070000000001
   191   1      20.745486597051695      37.026046294341882      14.287419999999999
   192   1      13.202130553850761      1.6877671564763304      22.492730000000002
   193   1      17.966661161510107      9.2319560458054699      14.287419999999999
   194   1      18.760615266099325      17.173127957652355      22.492730000000002
   195   1      18.760615266099325      17.173127957652355      18.390070000000001
   196   1      18.760615266099325      17.173127957652355      14.287419999999999
   197   1      18.363643188990672      13.202542499247508      22.492730000000002
   198   1      18.363643188990672      13.202542499247508      18.390070000000001
   199   1      18.363643188990672      13.202542499247508      14.287419999999999
   200   1      31.268285484009972      18.165382028841329      11.292730000000001
   201   1      31.268285484009972      18.165382028841329      7.1900700000000004
   202   1      31.268285484009972      18.165382028841329      3.0874199999999998
   203   1      19.157587343207979      21.143713416057203      22.492730000000002
   204   1      19.157587343207979      21.143713416057203      18.390070000000001
   205   1      19.157587343207979      21.143713416057203      14.287419999999999
   206   1      19.554569370688537      25.114299869499245      22.492730000000002
   207   1      19.554569370688537      25.114299869499245      18.390070000000001
   208   1      19.554569370688537      25.114299869499245      14.287419999999999
   209   1      24.319099978347886      32.658488758828383      18.390070000000001
   210   1      24.319099978347886      32.658488758828383      14.287419999999999
   211   1      24.716072055456543      36.629074217233232      22.492730000000002
   212   1      24.716072055456543      36.629074217233232      18.390070000000001
   213   1      24.716072055456543      36.629074217233232      14.287419999999999
   214   1      30.871227833702957      22.135958531911463      11.292730000000001
   215   1      30.871227833702957      22.135958531911463      7.1900700000000004
   216   1      30.871227833702957      22.135958531911463      3.0874199999999998
   217   1      17.569688089364263      5.2613805377725225      22.492730000000002
   218   1      17.569688089364263      5.2613805377725225      18.390070000000001
   219   1      17.569688089364263      5.2613805377725225      14.287419999999999
   220   1      17.172716012255609      1.2907950793676746      22.492730000000002
   221   1      17.172716012255609      1.2907950793676746      18.390070000000001
   222   1      17.172716012255609      1.2907950793676746      14.287419999999999
   223   1      17.966661161510107      9.2319560458054699      22.492730000000002
   224   1      17.966661161510107      9.2319560458054699      18.390070000000001
   225   1      30.077112533088929      30.077111538051739      11.292730000000001
   226   1      30.077112533088929      30.077111538051739      7.1900700000000004
   227   1      30.077112533088929      30.077111538051739      3.0874199999999998
   228   1      30.474170183395945      26.106535034981604      11.292730000000001
   229   1      30.474170183395945      26.106535034981604      7.1900700000000004
   230   1      30.474170183395945      26.106535034981604      3.0874199999999998
   231   1      23.525145873758674      24.717316846981497      22.492730000000002
   232   1      23.525145873758674      24.717316846981497      18.390070000000001
   233   1      23.525145873758674      24.717316846981497      14.287419999999999
   234   1      23.128172801612827      20.746741338948549      22.492730000000002
   235   1      23.128172801612827      20.746741338948549      18.390070000000001
   236   1      23.128172801612827      20.746741338948549      14.287419999999999
   237   1      23.922127901239232      28.687903300423532      22.492730000000002
   238   1      23.922127901239232      28.687903300423532      18.390070000000001
   239   1      23.922127901239232      28.687903300423532      14.287419999999999
   240   1      24.319099978347886      32.658488758828383      22.492730000000002
   241   1      21.143292515325747     0.89381205684992682      14.287419999999999
   242   1      21.937246619914962      8.8349839686968128      22.492730000000002
   243   1      21.937246619914962      8.8349839686968128      18.390070000000001
   244   1      21.937246619914962      8.8349839686968128      14.287419999999999
   245   1      21.540274542806305      4.8643985102919656      22.492730000000002
   246   1      21.540274542806305      4.8643985102919656      18.390070000000001
   247   1      21.540274542806305      4.8643985102919656      14.287419999999999
   248   1      29.680054882781917      34.047688041121873      11.292730000000001
   249   1      29.680054882781917      34.047688041121873      7.1900700000000004
   250   1      29.680054882781917      34.047688041121873      3.0874199999999998
   251   1      22.334218697023616      12.805569427101661      22.492730000000002
   252   1      22.334218697023616      12.805569427101661      18.390070000000001
   253   1      22.334218697023616      12.805569427101661      14.287419999999999
   254   1      22.731200724504173      16.776155880543701      22.492730000000002
   255   1      22.731200724504173      16.776155880543701      18.390070000000001
   256   1      22.731200724504173      16.776155880543701      14.287419999999999
   257   1       27.89270340927218      28.290930228277688      14.287419999999999
   258   1      27.495731332163523       24.32034476987284      22.492730000000002
   259   1      27.495731332163523       24.32034476987284      18.390070000000001
   260   1      27.495731332163523       24.32034476987284      14.287419999999999
   261   1      29.282997232474905      38.018264544192007      11.292730000000001
   262   1      29.282997232474905      38.018264544192007      7.1900700000000004
   263   1      29.282997232474905      38.018264544192007      3.0874199999999998
   264   1      28.289685436752734      32.261516681719726      22.492730000000002
   265   1      28.289685436752734      32.261516681719726      18.390070000000001
   266   1      28.289685436752734      32.261516681719726      14.287419999999999
   267   1       27.89270340927218      28.290930228277688      22.492730000000002
   268   1      28.686658508898585      36.232092189752677      22.492730000000002
   269   1      28.686658508898585      36.232092189752677      18.390070000000001
   270   1      28.686658508898585      36.232092189752677      14.287419999999999
   271   1      21.143292515325747     0.89381205684992682      22.492730000000002
   272   1      21.143292515325747     0.89381205684992682      18.390070000000001
   273   1       25.90783207831981      8.4380118915881575      18.390070000000001
   274   1       25.90783207831981      8.4380118915881575      14.287419999999999
   275   1      28.488881931860874      5.8565948693239047      11.292730000000001
   276   1      28.488881931860874      5.8565948693239047      7.1900700000000004
   277   1      28.488881931860874      5.8565948693239047      3.0874199999999998
   278   1      28.885938587130699      1.8860283166256704      11.292730000000001
   279   1      28.885938587130699      1.8860283166256704      7.1900700000000004
   280   1      28.885938587130699      1.8860283166256704      3.0874199999999998
   281   1      26.701777227574311      16.379172858025953      22.492730000000002
   282   1      26.701777227574311      16.379172858025953      18.390070000000001
   283   1      26.701777227574311      16.379172858025953      14.287419999999999
   284   1      26.304804155428464      12.408597349993006      22.492730000000002
   285   1      27.098759255054865      20.349759311467992      22.492730000000002
   286   1      27.098759255054865      20.349759311467992      18.390070000000001
   287   1      27.098759255054865      20.349759311467992      14.287419999999999
   288   1       27.89270340927218      28.290930228277688      18.390070000000001
   289   1       32.65724396730343       35.83512011264402      14.287419999999999
   290   1      33.054216044412087      39.805705571048861      22.492730000000002
   291   1      33.054216044412087      39.805705571048861      18.390070000000001
   292   1      33.054216044412087      39.805705571048861      14.287419999999999
   293   1      28.091824281553862      9.8271713723940408      11.292730000000001
   294   1      28.091824281553862      9.8271713723940408      7.1900700000000004
   295   1      28.091824281553862      9.8271713723940408      3.0874199999999998
   296   1      25.510860001211149      4.4674264331833093      22.492730000000002
   297   1      25.510860001211149      4.4674264331833093      18.390070000000001
   298   1      25.510860001211149      4.4674264331833093      14.287419999999999
   299   1      25.113877973730595      0.4968399797412707      22.492730000000002
   300   1      25.113877973730595      0.4968399797412707      18.390070000000001
   301   1      25.113877973730595      0.4968399797412707      14.287419999999999
   302   1      26.304804155428464      12.408597349993006      18.390070000000001
   303   1      26.304804155428464      12.408597349993006      14.287419999999999
   304   1       25.90783207831981      8.4380118915881575      22.492730000000002
   305   1      31.069344713459717      19.952787234359338      18.390070000000001
   306   1      31.069344713459717      19.952787234359338      14.287419999999999
   307   1      31.466316790568374      23.923372692764183      22.492730000000002
   308   1      31.466316790568374      23.923372692764183      18.390070000000001
   309   1      31.466316790568374      23.923372692764183      14.287419999999999
   310   1      27.694766631246846      13.797747875464177      11.292730000000001
   311   1      27.694766631246846      13.797747875464177      7.1900700000000004
   312   1      27.694766631246846      13.797747875464177      3.0874199999999998
   313   1      32.260271890194772      31.864534654239169      22.492730000000002
   314   1      32.260271890194772      31.864534654239169      18.390070000000001
   315   1      32.260271890194772      31.864534654239169      14.287419999999999
   316   1      31.863289862714215       27.89394820079713      22.492730000000002
   317   1      31.863289862714215       27.89394820079713      18.390070000000001
   318   1      31.863289862714215       27.89394820079713      14.287419999999999
   319   1       32.65724396730343       35.83512011264402      22.492730000000002
   320   1       32.65724396730343       35.83512011264402      18.390070000000001
   321   1      29.878418531761845      8.0410298641075997      22.492730000000002
   322   1      29.878418531761845      8.0410298641075997      18.390070000000001
   323   1      29.878418531761845      8.0410298641075997      14.287419999999999
   324   1      26.900651330632819      21.738900881604451      11.292730000000001
   325   1      26.900651330632819      21.738900881604451      7.1900700000000004
   326   1      26.900651330632819      21.738900881604451      3.0874199999999998
   327   1      27.297708980939834      17.768324378534313      11.292730000000001
   328   1      27.297708980939834      17.768324378534313      7.1900700000000004
   329   1      27.297708980939834      17.768324378534313      3.0874199999999998
   330   1      30.672362685979159      15.982200780917298      22.492730000000002
   331   1      30.672362685979159      15.982200780917298      18.390070000000001
   332   1      30.672362685979159      15.982200780917298      14.287419999999999
   333   1      30.275390608870506      12.011615322512448      22.492730000000002
   334   1      30.275390608870506      12.011615322512448      18.390070000000001
   335   1      30.275390608870506      12.011615322512448      14.287419999999999
   336   1      31.069344713459717      19.952787234359338      22.492730000000002
   337   1      36.230847398227723      31.467561582093321      22.492730000000002
   338   1      36.230847398227723      31.467561582093321      18.390070000000001
   339   1      36.230847398227723      31.467561582093321      14.287419999999999
   340   1      37.024801502816928      39.408733493940211      22.492730000000002
   341   1      37.024801502816928      39.408733493940211      18.390070000000001
   342   1      37.024801502816928      39.408733493940211      14.287419999999999
   343   1      36.627829425708278      35.438148035535363      22.492730000000002
   344   1      26.503593680325807      25.709477384674589      11.292730000000001
   345   1      26.503593680325807      25.709477384674589      7.1900700000000004
   346   1      26.503593680325807      25.709477384674589      3.0874199999999998
   347   1      29.481435509244097      4.0704533610374636      22.492730000000002
   348   1      29.481435509244097      4.0704533610374636      18.390070000000001
   349   1      29.481435509244097      4.0704533610374636      14.287419999999999
   350   1      29.084463432135443    0.099867902632615732      22.492730000000002
   351   1      29.084463432135443    0.099867902632615732      18.390070000000001
   352   1      29.084463432135443    0.099867902632615732      14.287419999999999
   353   1      35.039920221492665       19.55581416221349      14.287419999999999
   354   1      34.642948144384015      15.585228703808641      22.492730000000002
   355   1      34.642948144384015      15.585228703808641      18.390070000000001
   356   1      34.642948144384015      15.585228703808641      14.287419999999999
   357   1      26.106536030018791      29.680053887744723      11.292730000000001