(written by ASE)

2712 atoms
3 atom types

0.0      42.418311629001145  xlo xhi
0.0      42.418311629001145  ylo yhi
0.0                      50  zlo zhi

Masses

     1       137.3269999646734 # Ba
     2      15.998999995884349 # O
     3      47.866999987686484 # Ti

Atoms # atomic

     1   1      19.989157603599857      2.9092216179153509      11.292730000000001
     2   1      19.989157603599857      2.9092216179153509      7.1900700000000004
     3   1      19.989157603599857      2.9092216179153509      3.0874199999999998
     4   1      1.2199954947432412      18.299932421148615      11.292730000000001
     5   1      2.5336999580696453      4.4108369561431164      18.390070000000001
     6   1      2.5336999580696453      4.4108369561431164      14.287419999999999
     7   1      5.5368487918096259      1.7832474110835776      22.492730000000002
     8   1      5.5368487918096259      1.7832474110835776      18.390070000000001
     9   1      5.5368487918096259      1.7832474110835776      14.287419999999999
    10   1      39.133708730659741      35.567561034493018      11.292730000000001
    11   1      39.133708730659741      35.567561034493018      7.1900700000000004
    12   1      39.133708730659741      35.567561034493018      3.0874199999999998
    13   1      2.9078904978865925       41.19840477402979      22.492730000000002
    14   1      2.9078904978865925       41.19840477402979      18.390070000000001
    15   1      2.9078904978865925       41.19840477402979      14.287419999999999
    16   1      41.573290506568469      12.670527043819595      22.492730000000002
    17   1      30.875274505342553      38.946011399395495      11.292730000000001
    18   1      30.875274505342553      38.946011399395495      7.1900700000000004
    19   1      30.875274505342553      38.946011399395495      3.0874199999999998
    20   1      28.247590888196175      41.949078390419928      11.292730000000001
    21   1      28.247590888196175      41.949078390419928      7.1900700000000004
    22   1      28.247590888196175      41.949078390419928      3.0874199999999998
    23   1      41.761385762760035      32.564501569235532      11.292730000000001
    24   1      41.761385762760035      32.564501569235532      7.1900700000000004
    25   1      41.761385762760035      32.564501569235532      3.0874199999999998
    26   1      2.5336999580696453      4.4108369561431164      22.492730000000002
    27   1      42.136775721684174      38.195244651639392      11.292730000000001
    28   1      42.136775721684174      38.195244651639392      7.1900700000000004
    29   1      42.136775721684174      38.195244651639392      3.0874199999999998
    30   1      39.509092104537793      41.198311642663818      11.292730000000001
    31   1      39.509092104537793      41.198311642663818      7.1900700000000004
    32   1      33.878341496366986      41.573695016541876      3.0874199999999998
    33   1      36.130641739635308      32.939877417346636      7.1900700000000004
    34   1      36.130641739635308      32.939877417346636      3.0874199999999998
    35   1      5.1612753923161598      7.4139867306039653      22.492730000000002
    36   1      5.1612753923161598      7.4139867306039653      18.390070000000001
    37   1      5.1612753923161598      7.4139867306039653      14.287419999999999
    38   1      11.167580585563067      2.1588142255309659      22.492730000000002
    39   1      9.1030463461823725      9.2907314480753218      11.292730000000001
    40   1      9.1030463461823725      9.2907314480753218      7.1900700000000004
    41   1      9.1030463461823725      9.2907314480753218      3.0874199999999998
    42   1      6.4753627290359956      12.293798439099753      11.292730000000001
    43   1      14.733790369307103      8.9153555999642133      11.292730000000001
    44   1      14.733790369307103      8.9153555999642133      7.1900700000000004
    45   1      14.733790369307103      8.9153555999642133      3.0874199999999998
    46   1      11.730723378282672      6.2876719828178365      11.292730000000001
    47   1      11.167580585563067      2.1588142255309659      18.390070000000001
    48   1      11.167580585563067      2.1588142255309659      14.287419999999999
    49   1      11.730723378282672      6.2876719828178365      7.1900700000000004
    50   1      11.730723378282672      6.2876719828178365      3.0874199999999998
    51   1      12.106113337206803      11.918415065221698      11.292730000000001
    52   1      12.106113337206803      11.918415065221698      7.1900700000000004
    53   1      12.106113337206803      11.918415065221698      3.0874199999999998
    54   1      9.4784297200604275      14.921482056246129      11.292730000000001
    55   1      9.4784297200604275      14.921482056246129      7.1900700000000004
    56   1      9.4784297200604275      14.921482056246129      3.0874199999999998
    57   1      16.986090612575424     0.28153800076897489      7.1900700000000004
    58   1      16.986090612575424     0.28153800076897489      3.0874199999999998
    59   1      14.358406995429048      3.2846049917934059      11.292730000000001
    60   1      14.358406995429048      3.2846049917934059      7.1900700000000004
    61   1      2.1581265585761784      10.041576275663504      22.492730000000002
    62   1      2.1581265585761784      10.041576275663504      18.390070000000001
    63   1      2.1581265585761784      10.041576275663504      14.287419999999999
    64   1      36.130641739635308      32.939877417346636      11.292730000000001
    65   1      25.244523897171742      39.321394773273553      3.0874199999999998
    66   1      22.616840280025368      42.324461764297979      11.292730000000001
    67   1      22.616840280025368      42.324461764297979      7.1900700000000004
    68   1      22.616840280025368      42.324461764297979      3.0874199999999998
    69   1      16.798326490129533      2.5343800992574868      22.492730000000002
    70   1      16.798326490129533      2.5343800992574868      18.390070000000001
    71   1      16.798326490129533      2.5343800992574868      14.287419999999999
    72   1      13.795170130622605      5.1619630592709473      22.492730000000002
    73   1      13.795170130622605      5.1619630592709473      18.390070000000001
    74   1      13.795170130622605      5.1619630592709473      14.287419999999999
    75   1      41.386002388881984      26.933750961064717      11.292730000000001
    76   1      41.386002388881984      26.933750961064717      7.1900700000000004
    77   1      41.386002388881984      26.933750961064717      3.0874199999999998
    78   1      38.758318771735603       29.93681795208915      11.292730000000001
    79   1      38.758318771735603       29.93681795208915      7.1900700000000004
    80   1      38.758318771735603       29.93681795208915      3.0874199999999998
    81   1       27.87220751431812      36.318327782249121      11.292730000000001
    82   1       27.87220751431812      36.318327782249121      7.1900700000000004
    83   1       27.87220751431812      36.318327782249121      3.0874199999999998
    84   1      10.792021296882625      7.7895526043304848      22.492730000000002
    85   1      10.792021296882625      7.7895526043304848      18.390070000000001
    86   1      10.792021296882625      7.7895526043304848      14.287419999999999
    87   1      14.358406995429048      3.2846049917934059      3.0874199999999998
    88   1     0.84461212086518733      12.669181812977808      3.0874199999999998
    89   1      16.986090612575424     0.28153800076897489      11.292730000000001
    90   1      6.8507461029140488       17.92454904727056      11.292730000000001
    91   1      6.8507461029140488       17.92454904727056      7.1900700000000004
    92   1      6.8507461029140488       17.92454904727056      3.0874199999999998
    93   1      3.4722957380115651       9.666114821953375      11.292730000000001
    94   1      3.4722957380115651       9.666114821953375      7.1900700000000004
    95   1      25.244523897171742      39.321394773273553      11.292730000000001
    96   1      25.244523897171742      39.321394773273553      7.1900700000000004
    97   1      4.7857161036357168      13.044725109403485      18.390070000000001
    98   1      4.7857161036357168      13.044725109403485      14.287419999999999
    99   1      1.7825597441287897      15.672308069416944      22.492730000000002
   100   1      1.7825597441287897      15.672308069416944      18.390070000000001
   101   1      1.7825597441287897      15.672308069416944      14.287419999999999
   102   1      3.4722957380115651       9.666114821953375      3.0874199999999998
   103   1     0.84461212086518733      12.669181812977808      11.292730000000001
   104   1     0.84461212086518733      12.669181812977808      7.1900700000000004
   105   1       4.223062485767672      20.927616038294993      11.292730000000001
   106   1       4.223062485767672      20.927616038294993      7.1900700000000004
   107   1       4.223062485767672      20.927616038294993      3.0874199999999998
   108   1      6.0999793551579415       6.663047830928944      11.292730000000001
   109   1      6.0999793551579415       6.663047830928944      7.1900700000000004
   110   1      7.7888649373756991      10.417135564343946      22.492730000000002
   111   1      7.7888649373756991      10.417135564343946      18.390070000000001
   112   1      7.7888649373756991      10.417135564343946      14.287419999999999
   113   1     0.46922874698713313      7.0384312048069972      7.1900700000000004
   114   1     0.46922874698713313      7.0384312048069972      3.0874199999999998
   115   1      22.429058283882974      2.9099469137048755      22.492730000000002
   116   1      22.429058283882974      2.9099469137048755      18.390070000000001
   117   1      22.429058283882974      2.9099469137048755      14.287419999999999
   118   1       35.75525178071117      27.309134334942772      11.292730000000001
   119   1       35.75525178071117      27.309134334942772      7.1900700000000004
   120   1       35.75525178071117      27.309134334942772      3.0874199999999998
   121   1      33.127574748610876      30.312193800200255      11.292730000000001
   122   1      25.432207117622955     0.28235736864533684      22.492730000000002
   123   1      33.127574748610876      30.312193800200255      7.1900700000000004
   124   1      33.127574748610876      30.312193800200255      3.0874199999999998
   125   1      30.499891131464498      33.315260791224688      11.292730000000001
   126   1      30.499891131464498      33.315260791224688      7.1900700000000004
   127   1      30.499891131464498      33.315260791224688      3.0874199999999998
   128   1      4.7857161036357168      13.044725109403485      22.492730000000002
   129   1      19.425901924376046      5.5375298737183343      14.287419999999999
   130   1      38.382935397857551       24.30606734391834      11.292730000000001
   131   1      38.382935397857551       24.30606734391834      7.1900700000000004
   132   1      38.382935397857551       24.30606734391834      3.0874199999999998
   133   1      25.432207117622955     0.28235736864533684      18.390070000000001
   134   1      25.432207117622955     0.28235736864533684      14.287419999999999
   135   1      6.0999793551579415       6.663047830928944      3.0874199999999998
   136   1      11.355340004404617     0.65692137464702915      11.292730000000001
   137   1      11.355340004404617     0.65692137464702915      7.1900700000000004
   138   1      11.355340004404617     0.65692137464702915      3.0874199999999998
   139   1      8.7276563872582411        3.65998836567146      11.292730000000001
   140   1      8.7276563872582411        3.65998836567146      7.1900700000000004
   141   1      8.7276563872582411        3.65998836567146      3.0874199999999998
   142   1      1.5953788686212962      23.930683029319422      11.292730000000001
   143   1      1.5953788686212962      23.930683029319422      7.1900700000000004
   144   1      1.5953788686212962      23.930683029319422      3.0874199999999998
   145   1      19.613780814767885      39.696784732197685      3.0874199999999998
   146   1      41.010619015003925       21.30300035289391      11.292730000000001
   147   1      41.010619015003925       21.30300035289391      7.1900700000000004
   148   1      41.010619015003925       21.30300035289391      3.0874199999999998
   149   1      16.422753090636064      8.1651194187778735      22.492730000000002
   150   1      16.422753090636064      8.1651194187778735      18.390070000000001
   151   1      16.422753090636064      8.1651194187778735      14.287419999999999
   152   1      25.619908211770664      2.5338382440372973      11.292730000000001
   153   1      25.619908211770664      2.5338382440372973      7.1900700000000004
   154   1      25.619908211770664      2.5338382440372973      3.0874199999999998
   155   1      3.0969123641335101      4.0353642137825663      11.292730000000001
   156   1      3.0969123641335101      4.0353642137825663      7.1900700000000004
   157   1      3.0969123641335101      4.0353642137825663      3.0874199999999998
   158   1      13.419604256896086      10.792708963837413      22.492730000000002
   159   1      19.425901924376046      5.5375298737183343      22.492730000000002
   160   1      19.425901924376046      5.5375298737183343      18.390070000000001
   161   1       22.24146443191426      36.693717741173252      3.0874199999999998
   162   1      19.613780814767885      39.696784732197685      11.292730000000001
   163   1      13.419604256896086      10.792708963837413      18.390070000000001
   164   1      13.419604256896086      10.792708963837413      14.287419999999999
   165   1     0.46922874698713313      7.0384312048069972      11.292730000000001
   166   1      5.7245893962338084      1.0323047485250818      11.292730000000001
   167   1      5.7245893962338084      1.0323047485250818      7.1900700000000004
   168   1      5.7245893962338084      1.0323047485250818      3.0874199999999998
   169   1      22.992224594624286      5.5369052350617283      11.292730000000001
   170   1      22.992224594624286      5.5369052350617283      7.1900700000000004
   171   1      22.992224594624286      5.5369052350617283      3.0874199999999998
   172   1      20.364540977477912      8.5399722260861601      11.292730000000001
   173   1      10.416454482435237      13.420284398083927      22.492730000000002
   174   1      10.416454482435237      13.420284398083927      18.390070000000001
   175   1      10.416454482435237      13.420284398083927      14.287419999999999
   176   1      19.613780814767885      39.696784732197685      7.1900700000000004
   177   1      27.496831666207015       30.68758375912439      7.1900700000000004
   178   1      27.496831666207015       30.68758375912439      3.0874199999999998
   179   1      24.869148049060637      33.690650750148819      11.292730000000001
   180   1      24.869148049060637      33.690650750148819      7.1900700000000004
   181   1      24.869148049060637      33.690650750148819      3.0874199999999998
   182   1      4.4101492891883289      18.675456903156924      22.492730000000002
   183   1      4.4101492891883289      18.675456903156924      18.390070000000001
   184   1      4.4101492891883289      18.675456903156924      14.287419999999999
   185   1      1.4070004554483488      21.303046448216467      22.492730000000002
   186   1      1.4070004554483488      21.303046448216467      18.390070000000001
   187   1      1.4070004554483488      21.303046448216467      14.287419999999999
   188   1      7.4133056486952569      16.047873943143465      22.492730000000002
   189   1      7.4133056486952569      16.047873943143465      18.390070000000001
   190   1      7.4133056486952569      16.047873943143465      14.287419999999999
   191   1       22.24146443191426      36.693717741173252      11.292730000000001
   192   1       22.24146443191426      36.693717741173252      7.1900700000000004
   193   1      30.124515283353393      27.684516768099957      7.1900700000000004
   194   1      30.124515283353393      27.684516768099957      3.0874199999999998
   195   1      31.062946437143342     0.65793076813880402      22.492730000000002
   196   1      31.062946437143342     0.65793076813880402      18.390070000000001
   197   1      27.496831666207015       30.68758375912439      11.292730000000001
   198   1    0.093845373109079352      1.4076805966361892      11.292730000000001
   199   1    0.093845373109079352      1.4076805966361892      7.1900700000000004
   200   1    0.093845373109079352      1.4076805966361892      3.0874199999999998
   201   1      20.364540977477912      8.5399722260861601      7.1900700000000004
   202   1      20.364540977477912      8.5399722260861601      3.0874199999999998
   203   1      17.736857360331534      11.543039217110591      11.292730000000001
   204   1      17.736857360331534      11.543039217110591      7.1900700000000004
   205   1      17.736857360331534      11.543039217110591      3.0874199999999998
   206   1      34.064726522019825      40.448647419765457      22.492730000000002
   207   1      34.064726522019825      40.448647419765457      18.390070000000001
   208   1      34.064726522019825      40.448647419765457      14.287419999999999
   209   1      31.062946437143342     0.65793076813880402      14.287419999999999
   210   1      28.059796662682494      3.2855062023853177      22.492730000000002
   211   1      39.695458315773266      40.824214234212846      22.492730000000002
   212   1      39.695458315773266      40.824214234212846      18.390070000000001
   213   1      39.695458315773266      40.824214234212846      14.287419999999999
   214   1      37.067882881526749      37.821064459751994      22.492730000000002
   215   1      37.067882881526749      37.821064459751994      18.390070000000001
   216   1      37.067882881526749      37.821064459751994      14.287419999999999
   217   1      15.109180328231234      14.546098682368076      11.292730000000001
   218   1      15.109180328231234      14.546098682368076      7.1900700000000004
   219   1      15.109180328231234      14.546098682368076      3.0874199999999998
   220   1      28.433988143220308      40.073088131085015      18.390070000000001
   221   1      28.433988143220308      40.073088131085015      14.287419999999999
   222   1      28.059796662682494      3.2855062023853177      18.390070000000001
   223   1      28.059796662682494      3.2855062023853177      14.287419999999999
   224   1      30.124515283353393      27.684516768099957      11.292730000000001
   225   1      38.007559549746446      18.675323320793613      7.1900700000000004
   226   1      38.007559549746446      18.675323320793613      3.0874199999999998
   227   1      35.379875932600065      21.678390311818042      11.292730000000001
   228   1      35.379875932600065      21.678390311818042      7.1900700000000004
   229   1      35.379875932600065      21.678390311818042      3.0874199999999998
   230   1      22.053491469435585      8.5406787074583139      22.492730000000002
   231   1      22.053491469435585      8.5406787074583139      18.390070000000001
   232   1      22.053491469435585      8.5406787074583139      14.287419999999999
   233   1      19.050342635695603      11.168268252517853      22.492730000000002
   234   1      19.050342635695603      11.168268252517853      18.390070000000001
   235   1      25.056647828942513      5.9130957474448547      22.492730000000002
   236   1      25.056647828942513      5.9130957474448547      18.390070000000001
   237   1      25.056647828942513      5.9130957474448547      14.287419999999999
   238   1      32.752192315453691      24.681457302842475      11.292730000000001
   239   1      32.752192315453691      24.681457302842475      7.1900700000000004
   240   1      32.752192315453691      24.681457302842475      3.0874199999999998
   241   1       40.63524316689282      15.672256329769182      11.292730000000001
   242   1       40.63524316689282      15.672256329769182      7.1900700000000004
   243   1       40.63524316689282      15.672256329769182      3.0874199999999998
   244   1      19.050342635695603      11.168268252517853      14.287419999999999
   245   1      16.047186276188679      13.795851212531316      22.492730000000002
   246   1      16.047186276188679      13.795851212531316      18.390070000000001
   247   1      40.071031715266727      35.193474914692459      22.492730000000002
   248   1      40.071031715266727      35.193474914692459      18.390070000000001
   249   1      40.071031715266727      35.193474914692459      14.287419999999999
   250   1      12.481496711084858      17.549165673392505      11.292730000000001
   251   1      12.481496711084858      17.549165673392505      7.1900700000000004
   252   1      12.481496711084858      17.549165673392505      3.0874199999999998
   253   1      9.8538130939384807      20.552232664416938      11.292730000000001
   254   1      31.437136976960289      37.445498586025479      22.492730000000002
   255   1      16.047186276188679      13.795851212531316      14.287419999999999
   256   1      38.007559549746446      18.675323320793613      11.292730000000001
   257   1      7.0377322492017891      21.678613262663852      18.390070000000001
   258   1      31.437136976960289      37.445498586025479      18.390070000000001
   259   1      31.437136976960289      37.445498586025479      14.287419999999999
   260   1      28.433988143220308      40.073088131085015      22.492730000000002
   261   1      9.8538130939384807      20.552232664416938      7.1900700000000004
   262   1      9.8538130939384807      20.552232664416938      3.0874199999999998
   263   1      7.2261294767921029       23.55529965544137      11.292730000000001
   264   1      7.2261294767921029       23.55529965544137      7.1900700000000004
   265   1      7.2261294767921029       23.55529965544137      3.0874199999999998
   266   1      37.443442170207192      32.190326080952481      22.492730000000002
   267   1      37.443442170207192      32.190326080952481      18.390070000000001
   268   1      37.443442170207192      32.190326080952481      14.287419999999999
   269   1      34.440293336467207      34.817915626012017      22.492730000000002
   270   1      13.044037442448698      16.423440757590853      22.492730000000002
   271   1      13.044037442448698      16.423440757590853      18.390070000000001
   272   1      13.044037442448698      16.423440757590853      14.287419999999999
   273   1      19.238397440889827      34.066034124026878      7.1900700000000004
   274   1      19.238397440889827      34.066034124026878      3.0874199999999998
   275   1      16.610713823743453      37.069101115051303      11.292730000000001
   276   1      7.0377322492017891      21.678613262663852      14.287419999999999
   277   1      4.0345834154618077      24.306202807723391      22.492730000000002
   278   1      4.0345834154618077      24.306202807723391      18.390070000000001
   279   1      4.0345834154618077      24.306202807723391      14.287419999999999
   280   1      16.610713823743453      37.069101115051303      7.1900700000000004
   281   1      16.610713823743453      37.069101115051303      3.0874199999999998
   282   1      13.983030206597073      40.072168106075736      11.292730000000001
   283   1      13.983030206597073      40.072168106075736      7.1900700000000004
   284   1      13.983030206597073      40.072168106075736      3.0874199999999998
   285   1      10.040888608708716      19.051030302650393      22.492730000000002
   286   1      10.040888608708716      19.051030302650393      18.390070000000001
   287   1      10.040888608708716      19.051030302650393      14.287419999999999
   288   1      7.0377322492017891      21.678613262663852      22.492730000000002
   289   1      21.866081058036205      31.062967133002445      7.1900700000000004
   290   1      21.866081058036205      31.062967133002445      3.0874199999999998
   291   1      1.0314336410009597      26.933778241969907      22.492730000000002
   292   1      1.0314336410009597      26.933778241969907      18.390070000000001
   293   1      34.440293336467207      34.817915626012017      18.390070000000001
   294   1      34.440293336467207      34.817915626012017      14.287419999999999
   295   1      40.446598529714123      29.562743120939018      22.492730000000002
   296   1      40.446598529714123      29.562743120939018      18.390070000000001
   297   1      40.446598529714123      29.562743120939018      14.287419999999999
   298   1      4.5984458596457269      26.558366646465799      11.292730000000001
   299   1      4.5984458596457269      26.558366646465799      7.1900700000000004
   300   1      4.5984458596457269      26.558366646465799      3.0874199999999998
   301   1      22.803256349466867      39.697521316637626      22.492730000000002
   302   1      22.803256349466867      39.697521316637626      18.390070000000001
   303   1      1.0314336410009597      26.933778241969907      14.287419999999999
   304   1      19.238397440889827      34.066034124026878      11.292730000000001
   305   1      22.803256349466867      39.697521316637626      14.287419999999999
   306   1      19.800099989959939      42.325104276651089      22.492730000000002
   307   1      19.800099989959939      42.325104276651089      18.390070000000001
   308   1      19.800099989959939      42.325104276651089      14.287419999999999
   309   1      1.9707622424993489      29.561433637490232      11.292730000000001
   310   1      1.9707622424993489      29.561433637490232      7.1900700000000004
   311   1      1.9707622424993489      29.561433637490232      3.0874199999999998
   312   1       28.80955401694683      34.442342226518555      22.492730000000002
   313   1       28.80955401694683      34.442342226518555      18.390070000000001
   314   1       28.80955401694683      34.442342226518555      14.287419999999999
   315   1      25.806405183206849      37.069931771578091      22.492730000000002
   316   1      30.687379622695953      6.2886625618922443      14.287419999999999
   317   1      36.693684815942859      1.0334900568192444      22.492730000000002
   318   1      36.693684815942859      1.0334900568192444      18.390070000000001
   319   1      36.693684815942859      1.0334900568192444      14.287419999999999
   320   1      21.866081058036205      31.062967133002445      11.292730000000001
   321   1      29.749125324429258      22.053773685696097      7.1900700000000004
   322   1      29.749125324429258      22.053773685696097      3.0874199999999998
   323   1       27.12144829232896       25.05683315095358      11.292730000000001
   324   1      27.684230788955972      8.9162521069517808      22.492730000000002
   325   1      27.684230788955972      8.9162521069517808      18.390070000000001
   326   1      27.684230788955972      8.9162521069517808      14.287419999999999
   327   1       27.12144829232896       25.05683315095358      7.1900700000000004
   328   1       27.12144829232896       25.05683315095358      3.0874199999999998
   329   1      24.493764675182582      28.059900141978012      11.292730000000001
   330   1      24.493764675182582      28.059900141978012      7.1900700000000004
   331   1      24.493764675182582      28.059900141978012      3.0874199999999998
   332   1      33.690528456435935      3.6610730168327086      22.492730000000002
   333   1      33.690528456435935      3.6610730168327086      18.390070000000001
   334   1      33.690528456435935      3.6610730168327086      14.287419999999999
   335   1      30.687379622695953      6.2886625618922443      22.492730000000002
   336   1      30.687379622695953      6.2886625618922443      18.390070000000001
   337   1      18.674775821248215      16.799000046271296      14.287419999999999
   338   1      32.376808941575632      19.050706694671664      11.292730000000001
   339   1      32.376808941575632      19.050706694671664      7.1900700000000004
   340   1      32.376808941575632      19.050706694671664      3.0874199999999998
   341   1      25.806405183206849      37.069931771578091      18.390070000000001
   342   1      25.806405183206849      37.069931771578091      14.287419999999999
   343   1      31.250658819941471      2.1584548701592423      11.292730000000001
   344   1      31.250658819941471      2.1584548701592423      7.1900700000000004
   345   1      31.250658819941471      2.1584548701592423      3.0874199999999998
   346   1      31.812710376453751      31.814759266505089      22.492730000000002
   347   1      31.812710376453751      31.814759266505089      18.390070000000001
   348   1      31.812710376453751      31.814759266505089      14.287419999999999
   349   1      24.681074429449044      11.543835066965242      22.492730000000002
   350   1      24.681074429449044      11.543835066965242      18.390070000000001
   351   1      24.681074429449044      11.543835066965242      14.287419999999999
   352   1      29.749125324429258      22.053773685696097      11.292730000000001
   353   1      34.815852625147656      29.187177247212496      22.492730000000002
   354   1      34.815852625147656      29.187177247212496      18.390070000000001
   355   1      34.815852625147656      29.187177247212496      14.287419999999999
   356   1      28.622975202795093      5.1615218611836733      11.292730000000001
   357   1      28.622975202795093      5.1615218611836733      7.1900700000000004