(written by ASE)

408 atoms
3 atom types

0.0      16.452754495353922  xlo xhi
0.0      16.452754495353922  ylo yhi
0.0                      50  zlo zhi

Masses

     1       137.3269999646734 # Ba
     2      15.998999995884349 # O
     3      47.866999987686484 # Ti

Atoms # atomic

     1   1      15.726897607743458      7.0166114154948698      3.0874199999999998
     2   1      15.726897607743458      7.0166114154948698      7.1900700000000004
     3   1      15.726897607743458      7.0166114154948698      11.292730000000001
     4   1      12.823467260089764      2.1775745797574606      3.0874199999999998
     5   1      12.823467260089764      2.1775745797574606      7.1900700000000004
     6   1      12.823467260089764      2.1775745797574606      11.292730000000001
     7   1      11.855660378013532      6.0488021080623886      3.0874199999999998
     8   1      4.5964696810698218      14.275384951163517      14.287419999999999
     9   1      4.5964696810698218      14.275384951163517      18.390070000000001
    10   1      4.5964696810698218      14.275384951163517      22.492730000000002
    11   1      2.6611930414361584      6.5328280295911467      14.287419999999999
    12   1      2.6611930414361584      6.5328280295911467      18.390070000000001
    13   1      2.6611930414361584      6.5328280295911467      22.492730000000002
    14   1      3.6288325739311151      10.404101639664832      14.287419999999999
    15   1      3.6288325739311151      10.404101639664832      18.390070000000001
    16   1      3.6288325739311151      10.404101639664832      22.492730000000002
    17   1      1.6935535089412022      2.6615544195174627      14.287419999999999
    18   1      1.6935535089412022      2.6615544195174627      18.390070000000001
    19   1      1.6935535089412022      2.6615544195174627      22.492730000000002
    20   1      11.855660378013532      6.0488021080623886      7.1900700000000004
    21   1      11.855660378013532      6.0488021080623886      11.292730000000001
    22   1       10.88785107058105      9.9200393377923177      3.0874199999999998
    23   1       10.88785107058105      9.9200393377923177      7.1900700000000004
    24   1       10.88785107058105      9.9200393377923177      11.292730000000001
    25   1      8.4677529925685064      13.307747844024812      14.287419999999999
    26   1      8.4677529925685064      13.307747844024812      18.390070000000001
    27   1      8.4677529925685064      13.307747844024812      22.492730000000002
    28   1      7.5001158854298007      9.4364645325261254      14.287419999999999
    29   1      7.5001158854298007      9.4364645325261254      18.390070000000001
    30   1      7.5001158854298007      9.4364645325261254      22.492730000000002
    31   1      5.5648295443711371      1.6939051855975047      14.287419999999999
    32   1      5.5648295443711371      1.6939051855975047      18.390070000000001
    33   1      5.5648295443711371      1.6939051855975047      22.492730000000002
    34   1      6.5324666515098437      5.5651884970961909      14.287419999999999
    35   1      6.5324666515098437      5.5651884970961909      18.390070000000001
    36   1      6.5324666515098437      5.5651884970961909      22.492730000000002
    37   1      9.9200417631485678      13.791276567522246      3.0874199999999998
    38   1      9.9200417631485678      13.791276567522246      7.1900700000000004
    39   1      9.9200417631485678      13.791276567522246      11.292730000000001
    40   1      13.306666135137151       16.21138192160354      14.287419999999999
    41   1      13.306666135137151       16.21138192160354      18.390070000000001
    42   1      13.306666135137151       16.21138192160354      22.492730000000002
    43   1      11.371389495503488      8.4688250000311687      14.287419999999999
    44   1      11.371389495503488      8.4688250000311687      18.390070000000001
    45   1      11.371389495503488      8.4688250000311687      22.492730000000002
    46   1      12.339029027998444      12.340098610104853      14.287419999999999
    47   1      12.339029027998444      12.340098610104853      18.390070000000001
    48   1      12.339029027998444      12.340098610104853      22.492730000000002
    49   1      9.4361031544448224     0.72626565310254809      18.390070000000001
    50   1      9.4361031544448224     0.72626565310254809      22.492730000000002
    51   1      10.403752388364779      4.5975416885324822      14.287419999999999
    52   1      10.403752388364779      4.5975416885324822      18.390070000000001
    53   1      10.403752388364779      4.5975416885324822      22.492730000000002
    54   1      8.9522300303598357      1.2097652723249785      3.0874199999999998
    55   1      8.9522300303598357      1.2097652723249785      7.1900700000000004
    56   1      8.9522300303598357      1.2097652723249785      11.292730000000001
    57   1      7.9844231482836037      5.0809928006299065      3.0874199999999998
    58   1      15.242663105577172       7.501185467536212      14.287419999999999
    59   1      15.242663105577172       7.501185467536212      18.390070000000001
    60   1      15.242663105577172       7.501185467536212      22.492730000000002
    61   1      16.210312339497126      11.372461502966146      14.287419999999999
    62   1      16.210312339497126      11.372461502966146      18.390070000000001
    63   1      16.210312339497126      11.372461502966146      22.492730000000002
    64   1      9.4361031544448224     0.72626565310254809      14.287419999999999
    65   1      14.275025998438464       3.629902156037526      14.287419999999999
    66   1      14.275025998438464       3.629902156037526      18.390070000000001
    67   1      14.275025998438464       3.629902156037526      22.492730000000002
    68   1      7.9844231482836037      5.0809928006299065      7.1900700000000004
    69   1      7.9844231482836037      5.0809928006299065      11.292730000000001
    70   1      7.0166138408511216      8.9522300303598357      3.0874199999999998
    71   1      7.0166138408511216      8.9522300303598357      7.1900700000000004
    72   1      7.0166138408511216      8.9522300303598357      11.292730000000001
    73   1     0.24194868882374496      3.1453741857649415      7.1900700000000004
    74   1     0.24194868882374496      3.1453741857649415      11.292730000000001
    75   1       1.209757996256227       15.72689518238721      3.0874199999999998
    76   1       1.209757996256227       15.72689518238721      7.1900700000000004
    77   1       1.209757996256227       15.72689518238721      11.292730000000001
    78   1     0.24194868882374496      3.1453741857649415      3.0874199999999998
    79   1      2.1775673036887091      11.855657952657282      3.0874199999999998
    80   1      2.1775673036887091      11.855657952657282      7.1900700000000004
    81   1      2.1775673036887091      11.855657952657282      11.292730000000001
    82   1      4.1131859185536737      4.1131834931974236      7.1900700000000004
    83   1      4.1131859185536737      4.1131834931974236      11.292730000000001
    84   1      3.1453766111211916      7.9844207229273527      3.0874199999999998
    85   1      3.1453766111211916      7.9844207229273527      7.1900700000000004
    86   1      3.1453766111211916      7.9844207229273527      11.292730000000001
    87   1      6.0488045334186396      12.823467260089764      3.0874199999999998
    88   1      6.0488045334186396      12.823467260089764      7.1900700000000004
    89   1      6.0488045334186396      12.823467260089764      11.292730000000001
    90   1      5.0809928006299057     0.24195596489249604      3.0874199999999998
    91   1      5.0809928006299057     0.24195596489249604      7.1900700000000004
    92   1      5.0809928006299057     0.24195596489249604      11.292730000000001
    93   1      4.1131859185536737      4.1131834931974236      3.0874199999999998
    94   1      14.759088300310976      10.887848645224798      3.0874199999999998
    95   1      14.759088300310976      10.887848645224798      7.1900700000000004
    96   1      14.759088300310976      10.887848645224798      11.292730000000001
    97   1      13.791278992878494      14.759085874954728      3.0874199999999998
    98   1      13.791278992878494      14.759085874954728      7.1900700000000004
    99   1      13.791278992878494      14.759085874954728      11.292730000000001
   100   1     0.72519607099613792      15.243024483658473      14.287419999999999
   101   1     0.72519607099613792      15.243024483658473      18.390070000000001
   102   1     0.72519607099613792      15.243024483658473      22.492730000000002
   103   2     0.24137145403615823      13.307386465943507      20.366240000000001
   104   2      2.6608340887111046      14.759199866698495      20.366240000000001
   105   2      16.210802261459701      13.307371913806005      7.0523499999999997
   106   2     0.72555502372119141      7.0166526465511261      20.366240000000001
   107   2      0.2417328321174626      5.0810049274111568                  22.355
   108   2      1.2093699392561694      8.9522882389098424                14.14969
   109   2      1.6931945562161488      10.887926256624811      16.263580000000001
   110   2      1.2093699392561694      8.9522882389098424                18.25235
   111   2      1.6931945562161488      10.887926256624811      20.366240000000001
   112   2      1.2093699392561694      8.9522882389098424                  22.355
   113   2      2.1770094717511261      12.823561848983529                14.14969
   114   2      2.1770094717511261      12.823561848983529                  22.355
   115   2      9.4361371094323268      7.5005160692111117      2.9496899999999999
   116   2      8.9522324557160857      9.4361346840760767                 5.06358
   117   2      6.0482927832498117      11.855924741844822                  22.355
   118   2      7.0159323157447684      15.727198351918506                14.14969
   119   2      5.0802942980298011      16.211022968878485      16.263580000000001
   120   2      7.0159323157447684      15.727198351918506                18.25235
   121   2      5.0802942980298011      16.211022968878485      20.366240000000001
   122   2      7.0159323157447684      15.727198351918506                  22.355
   123   2      0.2417328321174626      5.0810049274111568                14.14969
   124   2     0.72555502372119141      7.0166526465511261      16.263580000000001
   125   2      0.2417328321174626      5.0810049274111568                18.25235
   126   2      7.5005184945673626      7.0166114154948707                 5.06358
   127   2      9.4361371094323268      7.5005160692111117      7.0523499999999997
   128   2      8.9522324557160857      9.4361346840760767      9.1662400000000002
   129   2      7.5005184945673626      7.0166114154948707      9.1662400000000002
   130   2      9.4361371094323268      7.5005160692111117      11.154999999999999
   131   2      8.4683278019998447      11.371753298941041      2.9496899999999999
   132   2      7.9844231482836037      13.307371913806005                 5.06358
   133   2      6.5327091871348806        10.8878486452248                 5.06358
   134   2      8.4683278019998447      11.371753298941041      7.0523499999999997
   135   2      7.9844231482836037      13.307371913806005      9.1662400000000002
   136   2      6.5327091871348806        10.8878486452248      9.1662400000000002
   137   2      8.4683278019998447      11.371753298941041      11.154999999999999
   138   2      4.5970905722699156      10.403943991508559      2.9496899999999999
   139   2      4.1131859185536745      12.339562606373523                 5.06358
   140   2      2.6614719574049501      9.9200393377923177                 5.06358
   141   2      4.5970905722699156      10.403943991508559      7.0523499999999997
   142   2      6.5327091871348797      2.6614695320487001      2.9496899999999999
   143   2      6.0488045334186387      4.5970881469136646                 5.06358
   144   2      4.5970905722699147       2.177564878332459                 5.06358
   145   2      6.5327091871348797      2.6614695320487001      7.0523499999999997
   146   2      6.0488045334186387      4.5970881469136646      9.1662400000000002
   147   2      4.5970905722699147       2.177564878332459      9.1662400000000002
   148   2      6.5327091871348797      2.6614695320487001      11.154999999999999
   149   2      3.6292812648374331      14.275181221238489      2.9496899999999999
   150   2      3.1450079569711367      8.4684636219498639      16.263580000000001
   151   2       5.080653250754855      7.9846511317711366                18.25235
   152   2      5.5644681662898323      9.9202867241298538      20.366240000000001
   153   2      3.1450079569711367      8.4684636219498639      20.366240000000001
   154   2       5.080653250754855      7.9846511317711366                  22.355
   155   2      6.0482927832498117      11.855924741844822                14.14969
   156   2      6.5321174002097893      13.791562759559788      16.263580000000001
   157   2      4.1126547655348444        12.3397493588048      16.263580000000001
   158   2      4.1130064421911472       4.113365394916201                14.14969
   159   2      4.5968310591511266      6.0490034126311683      16.263580000000001
   160   2      6.5321174002097893      13.791562759559788      20.366240000000001
   161   2      4.1126547655348444        12.3397493588048      20.366240000000001
   162   2       3.145376611121192      16.210799836103451                 5.06358
   163   2      1.6936626499724678      13.791276567522246                 5.06358
   164   2      3.6292812648374331      14.275181221238489      7.0523499999999997
   165   2       3.145376611121192      16.210799836103451      9.1662400000000002
   166   2      1.6936626499724678      13.791276567522246      9.1662400000000002
   167   2      3.6292812648374331      14.275181221238489      11.154999999999999
   168   2      5.5648998797023976      6.5327067617786287      2.9496899999999999
   169   2      5.0809952259861566      8.4683253766435929                 5.06358
   170   2      3.6292812648374326      6.0488021080623877                 5.06358
   171   2      5.5648998797023976      6.5327067617786287      7.0523499999999997
   172   2      5.0809952259861566      8.4683253766435929      9.1662400000000002
   173   2      3.6292812648374326      6.0488021080623877      9.1662400000000002
   174   2      5.5648998797023976      6.5327067617786287      11.154999999999999
   175   2      2.6614719574049506       1.693660224616218      2.9496899999999999
   176   2      2.1775673036887095      3.6292788394811826                 5.06358
   177   2     0.72585334253998612      1.2097555708999768                 5.06358
   178   2      2.6614719574049506       1.693660224616218      7.0523499999999997
   179   2      2.1775673036887095      3.6292788394811826      9.1662400000000002
   180   2     0.72585334253998612      1.2097555708999768      9.1662400000000002
   181   2      2.6614719574049506       1.693660224616218      11.154999999999999
   182   2      1.6936626499724685      5.5648974543461467      2.9496899999999999
   183   2      1.2097579962562273      7.5005160692111117                 5.06358
   184   2      1.6936626499724685      5.5648974543461467      7.0523499999999997
   185   2      4.1131859185536745      12.339562606373523      9.1662400000000002
   186   2      2.6614719574049501      9.9200393377923177      9.1662400000000002
   187   2      4.5970905722699156      10.403943991508559      11.154999999999999
   188   2      15.726849100618454      1.2104419467188299                14.14969
   189   2       16.21066159079718      3.1460872405025482      16.263580000000001
   190   2      10.403946416864809      3.6292788394811826      2.9496899999999999
   191   2      9.9200417631485678      5.5648974543461476                 5.06358
   192   2      8.4683278019998447      3.1453741857649415                 5.06358
   193   2      10.403946416864809      3.6292788394811826      7.0523499999999997
   194   2      9.9200417631485678      5.5648974543461476      9.1662400000000002
   195   2      8.4683278019998447      3.1453741857649415      9.1662400000000002
   196   2      10.403946416864809      3.6292788394811826      11.154999999999999
   197   2      13.791201381478484      1.6942641383225585      20.366240000000001
   198   2      15.726849100618454      1.2104419467188299                  22.355
   199   2      4.5968310591511266      6.0490034126311683      20.366240000000001
   200   2      2.1773684244761795      4.5971900118761795      20.366240000000001
   201   2      4.1130064421911472       4.113365394916201                  22.355
   202   2      8.9515679081034865      15.243383436383528      16.263580000000001
   203   2      10.887215627243455        14.7595612447798                18.25235
   204   2      8.9515679081034865      15.243383436383528      20.366240000000001
   205   2      10.887215627243455        14.7595612447798                  22.355
   206   2      3.1453669096961905     0.24209178484251642                14.14969
   207   2      3.6291915266561694      2.1777298025574838      16.263580000000001
   208   2      1.2097313173374733     0.72590670037749416      16.263580000000001
   209   2      3.1453669096961905     0.24209178484251642                18.25235
   210   2       5.080653250754855      7.9846511317711366                14.14969
   211   2      5.5644681662898323      9.9202867241298538      16.263580000000001
   212   2      14.758850615398442      5.5655401737524937      16.263580000000001
   213   2      14.758850615398442      5.5655401737524937      20.366240000000001
   214   2      15.726487722537149      9.4368234852511801      16.263580000000001
   215   2      15.726487722537149      9.4368234852511801      20.366240000000001
   216   2      1.2097579962562273      7.5005160692111117      9.1662400000000002
   217   2      1.6936626499724685      5.5648974543461467      11.154999999999999
   218   2     0.72585334253998601      9.4361346840760767      2.9496899999999999
   219   2     0.24194868882374512      11.371753298941041                 5.06358
   220   2     0.72585334253998601      9.4361346840760767      7.0523499999999997
   221   2     0.24194868882374512      11.371753298941041      9.1662400000000002
   222   2     0.72585334253998601      9.4361346840760767      11.154999999999999
   223   2      11.855563363763517      2.1780887552825372                  22.355
   224   2      11.855660378013532      14.275181221238487      9.1662400000000002
   225   2      10.403946416864809      11.855657952657282      9.1662400000000002
   226   2      12.339565031729773      12.339562606373523      11.154999999999999
   227   2      11.371755724297291      16.210799836103451      2.9496899999999999
   228   2      9.4361371094323268      15.726895182387212                 5.06358
   229   2      11.371755724297291      16.210799836103451      7.0523499999999997
   230   2      9.4361371094323268      15.726895182387212      9.1662400000000002
   231   2      11.371755724297291      16.210799836103451      11.154999999999999
   232   2        10.8878486452248      1.6936699260412196                 5.06358
   233   2        10.8878486452248      1.6936699260412196      9.1662400000000002
   234   2      13.791201381478484      1.6942641383225585      16.263580000000001
   235   2      15.726849100618454      1.2104419467188299                18.25235
   236   2       16.21066159079718      3.1460872405025482      20.366240000000001
   237   2      10.887564878543506      6.5331869823162005      16.263580000000001
   238   2      12.823212597683476      6.0493647907124721                18.25235
   239   2      13.307027513218454      7.9850003830711902      20.366240000000001
   240   2      10.887564878543506      6.5331869823162005      20.366240000000001
   241   2      12.823212597683476      6.0493647907124721                  22.355
   242   2      11.371750873584789     0.24244346149881899      16.263580000000001
   243   2      11.371750873584789     0.24244346149881899      20.366240000000001
   244   2      11.855563363763517      2.1780887552825372                14.14969
   245   2      12.339387980723497      4.1137267729975058      16.263580000000001
   246   2      9.9199277714047991       2.661903670817515      16.263580000000001
   247   2      11.855563363763517      2.1780887552825372                18.25235
   248   2      12.339387980723497      4.1137267729975058      20.366240000000001
   249   2      9.9199277714047991       2.661903670817515      20.366240000000001
   250   2      13.790852130178433      9.9206384007861566                14.14969
   251   2      14.274664620357159      11.856283694569875      16.263580000000001
   252   2      11.855214112463464      10.404463017746135      16.263580000000001
   253   2      13.790852130178433      9.9206384007861566                18.25235
   254   2      14.274664620357159      11.856283694569875      20.366240000000001
   255   2      11.855214112463464      10.404463017746135      20.366240000000001
   256   2      13.790852130178433      9.9206384007861566                  22.355
   257   2      14.758489237317141      13.791921712284843                14.14969
   258   2      15.242313854277118      15.727559729999811      16.263580000000001
   259   2      12.822853644958421      14.275736627819819      16.263580000000001
   260   2      12.823212597683476      6.0493647907124721                14.14969
   261   2      13.307027513218454      7.9850003830711902      16.263580000000001
   262   2      7.9842897536898336      3.1457282877774944                14.14969
   263   2       8.468104669224811      5.0813638801362115      16.263580000000001
   264   2      3.1453669096961905     0.24209178484251642                  22.355
   265   2      14.275183646594737      4.5970881469136646      2.9496899999999999
   266   2      13.791278992878496      6.5327067617786296                 5.06358
   267   2      12.339565031729773      4.1131834931974236                 5.06358
   268   2      14.275183646594737      4.5970881469136646      7.0523499999999997
   269   2      13.791278992878496      6.5327067617786296      9.1662400000000002
   270   2      12.339565031729773      4.1131834931974236      9.1662400000000002
   271   2      14.275183646594737      4.5970881469136646      11.154999999999999
   272   2      8.9519292861847912      7.0170018978511788                  22.355
   273   2      2.1773684244761795      4.5971900118761795      16.263580000000001
   274   2      4.1130064421911472       4.113365394916201                18.25235
   275   2      13.307374339162255      8.4683253766435929      2.9496899999999999
   276   2      12.823469685446014      10.403943991508559                 5.06358
   277   2      11.371755724297291      7.9844207229273527                 5.06358
   278   2      13.307374339162255      8.4683253766435929      7.0523499999999997
   279   2      12.823469685446014      10.403943991508559      9.1662400000000002
   280   2      11.371755724297291      7.9844207229273527      9.1662400000000002
   281   2      13.307374339162255      8.4683253766435929      11.154999999999999
   282   2      12.339565031729773      12.339562606373523      2.9496899999999999
   283   2      11.855660378013532      14.275181221238487                 5.06358
   284   2      10.403946416864809      11.855657952657282                 5.06358
   285   2      12.339565031729773      12.339562606373523      7.0523499999999997
   286   2      8.9519292861847912      7.0170018978511788                14.14969
   287   2      9.4357539031447679      8.9526399155661451      16.263580000000001
   288   2      7.0162912684698231      7.5008265148111581      16.263580000000001
   289   2      8.9519292861847912      7.0170018978511788                18.25235
   290   2      9.4357539031447679      8.9526399155661451      20.366240000000001
   291   2      7.0162912684698231      7.5008265148111581      20.366240000000001
   292   2      14.758489237317141      13.791921712284843                18.25235
   293   2      15.242313854277118      15.727559729999811      20.366240000000001
   294   2      12.822853644958421      14.275736627819819      20.366240000000001
   295   2      14.758489237317141      13.791921712284843                  22.355
   296   2      7.5004651367298543      1.2100902700625271      16.263580000000001
   297   2      7.5004651367298543      1.2100902700625271      20.366240000000001
   298   2      9.9195663933234943      10.888285209349863                14.14969
   299   2      10.403391010283476      12.823923227064832      16.263580000000001
   300   2      7.9839308009647798      11.372100124884843      16.263580000000001
   301   2      9.9195663933234943      10.888285209349863                18.25235
   302   2      10.403391010283476      12.823923227064832      20.366240000000001
   303   2      7.9839308009647798      11.372100124884843      20.366240000000001
   304   2      9.9195663933234943      10.888285209349863                  22.355
   305   2      10.887215627243455        14.7595612447798                14.14969
   306   2      6.0486541613311164      3.6295432033124722      16.263580000000001
   307   2      7.9842897536898336      3.1457282877774944                18.25235
   308   2       8.468104669224811      5.0813638801362115      20.366240000000001
   309   2      6.0486541613311164      3.6295432033124722      20.366240000000001
   310   2      7.9842897536898336      3.1457282877774944                  22.355
   311   2      3.6291915266561694      2.1777298025574838      20.366240000000001
   312   2      1.2097313173374733     0.72590670037749416      20.366240000000001
   313   2      2.1770094717511261      12.823561848983529                18.25235
   314   2      15.726897607743462      15.242990528670969      9.1662400000000002
   315   2      14.275183646594735      12.823467260089764      9.1662400000000002
   316   2      16.210802261459701      13.307371913806005      11.154999999999999
   317   2      15.242990528670969     0.72586061860873696      2.9496899999999999
   318   2      14.759085874954728      2.6614792334737016                 5.06358
   319   2      13.307371913806005     0.24195596489249588                 5.06358
   320   2      15.242990528670969     0.72586061860873696      7.0523499999999997
   321   2      14.759085874954728      2.6614792334737016      9.1662400000000002
   322   2      13.307371913806005     0.24195596489249588      9.1662400000000002
   323   2      15.242990528670969     0.72586061860873696      11.154999999999999
   324   2      6.0482927832498117      11.855924741844822                18.25235
   325   2      15.726897607743462      15.242990528670969                 5.06358
   326   2      14.275183646594735      12.823467260089764                 5.06358
   327   2      7.5005184945673617      15.242990528670971      2.9496899999999999
   328   2      5.5648998797023976       14.75908587495473                 5.06358
   329   2      7.5005184945673617      15.242990528670971      7.0523499999999997
   330   2      5.5648998797023976       14.75908587495473      9.1662400000000002
   331   2      7.5005184945673617      15.242990528670971      11.154999999999999
   332   2      7.0166114154948707      0.7258606186087373                 5.06358
   333   2      7.0166114154948707      0.7258606186087373      9.1662400000000002
   334   2     0.24137145403615823      13.307386465943507      16.263580000000001
   335   2      16.210802261459701      5.0809928006299048      9.1662400000000002
   336   2      15.242992954027217      8.9522300303598339                 5.06358
   337   2      15.242992954027217      8.9522300303598339      9.1662400000000002
   338   2      16.210802261459701      13.307371913806005      2.9496899999999999
   339   2      16.210802261459701      5.0809928006299048                 5.06358
   340   2      2.6608340887111046      14.759199866698495      16.263580000000001
   341   3      16.210802261459701      13.307371913806005      9.3132000000000001
   342   3      16.210802261459701      13.307371913806005      5.2105499999999996
   343   3      15.242990528670969     0.72586061860873696      9.3132000000000001
   344   3      15.242990528670969     0.72586061860873696      5.2105499999999996
   345   3      10.887215627243455        14.7595612447798      20.513200000000001
   346   3      10.887215627243455        14.7595612447798      16.410550000000001
   347   3      9.9195663933234943      10.888285209349863      20.513200000000001
   348   3      7.9842897536898336      3.1457282877774944      20.513200000000001
   349   3      7.9842897536898336      3.1457282877774944      16.410550000000001
   350   3      8.9519292861847912      7.0170018978511788      20.513200000000001
   351   3      8.9519292861847912      7.0170018978511788      16.410550000000001
   352   3      13.790852130178433      9.9206384007861566      20.513200000000001
   353   3      12.339565031729773      12.339562606373523      9.3132000000000001
   354   3      12.339565031729773      12.339562606373523      5.2105499999999996
   355   3      9.9195663933234943      10.888285209349863      16.410550000000001
   356   3      13.307374339162255      8.4683253766435929      9.3132000000000001
   357   3      13.307374339162255      8.4683253766435929      5.2105499999999996
   358   3      14.275183646594737      4.5970881469136646      9.3132000000000001