(written by ASE)

18264 atoms
3 atom types

0.0      110.07950931261932  xlo xhi
0.0      110.07950931261932  ylo yhi
0.0                      50  zlo zhi

Masses

     1       137.3269999646734 # Ba
     2      15.998999995884349 # O
     3      47.866999987686484 # Ti

Atoms # atomic

     1   1      92.104918393060615      40.470008145318488      22.492730000000002
     2   1      83.425493061359006      48.714760066608562      22.492730000000002
     3   1      35.764992371110637      73.880567030829553      3.0874199999999998
     4   1      35.764992371110637      73.880567030829553      7.1900700000000004
     5   1      35.764992371110637      73.880567030829553      11.292730000000001
     6   1      38.513364448945786      70.987543791003077      3.0874199999999998
     7   1      38.513364448945786      70.987543791003077      7.1900700000000004
     8   1      89.211776615826736      43.218258785748503      14.287419999999999
     9   1      89.211776615826736      43.218258785748503      18.390070000000001
    10   1      89.211776615826736      43.218258785748503      22.492730000000002
    11   1      92.104918393060615      40.470008145318488      14.287419999999999
    12   1      92.104918393060615      40.470008145318488      18.390070000000001
    13   1      83.425493061359006      48.714760066608562      18.390070000000001
    14   1       33.01662029327548       76.77359027065603      3.0874199999999998
    15   1       33.01662029327548       76.77359027065603      7.1900700000000004
    16   1       33.01662029327548       76.77359027065603      11.292730000000001
    17   1      86.318634838592885      45.966509426178526      14.287419999999999
    18   1      86.318634838592885      45.966509426178526      18.390070000000001
    19   1      86.318634838592885      45.966509426178526      22.492730000000002
    20   1      27.519876137605177      82.559636750308982      7.1900700000000004
    21   1      27.519876137605177      82.559636750308982      11.292730000000001
    22   1      94.998046032805533      37.721757867388177      14.287419999999999
    23   1      94.998046032805533      37.721757867388177      18.390070000000001
    24   1      38.513364448945786      70.987543791003077      11.292730000000001
    25   1      49.506852760286399      59.415450831697171      7.1900700000000004
    26   1      74.746081867146344      56.959511625398918      14.287419999999999
    27   1      74.746081867146344      56.959511625398918      18.390070000000001
    28   1      74.746081867146344      56.959511625398918      22.492730000000002
    29   1      71.852954227401426      59.707761903329228      14.287419999999999
    30   1      71.852954227401426      59.707761903329228      18.390070000000001
    31   1      71.852954227401426      59.707761903329228      22.492730000000002
    32   1      44.010108604616093      65.201497311350124      3.0874199999999998
    33   1      44.010108604616093      65.201497311350124      7.1900700000000004
    34   1      44.010108604616093      65.201497311350124      11.292730000000001
    35   1      94.998046032805533      37.721757867388177      22.492730000000002
    36   1      77.639223644380223      54.211260984968888      14.287419999999999
    37   1      77.639223644380223      54.211260984968888      18.390070000000001
    38   1      77.639223644380223      54.211260984968888      22.492730000000002
    39   1      80.532365421614088      51.463010344538866      14.287419999999999
    40   1      80.532365421614088      51.463010344538866      18.390070000000001
    41   1      80.532365421614088      51.463010344538866      22.492730000000002
    42   1      41.261736526780936      68.094520551176601      3.0874199999999998
    43   1      41.261736526780936      68.094520551176601      7.1900700000000004
    44   1      41.261736526780936      68.094520551176601      11.292730000000001
    45   1      83.425493061359006      48.714760066608562      14.287419999999999
    46   1      14.135080506972677      109.03138048176727      18.390070000000001
    47   1      16.526394713759181      94.131722459620562      3.0874199999999998
    48   1      16.526394713759181      94.131722459620562      7.1900700000000004
    49   1      16.526394713759181      94.131722459620562      11.292730000000001
    50   1      109.46374078148592      23.980505027737749      14.287419999999999
    51   1      109.46374078148592      23.980505027737749      18.390070000000001
    52   1      109.46374078148592      23.980505027737749      22.492730000000002
    53   1      14.135080506972677      109.03138048176727      14.287419999999999
    54   1      19.274766791594338      91.238699219794071      3.0874199999999998
    55   1      19.274766791594338      91.238699219794071      7.1900700000000004
    56   1      19.274766791594338      91.238699219794071      11.292730000000001
    57   1       11.02965055808888        99.9177689392735      11.292730000000001
    58   1      100.78432958727328      32.225256586528126      22.492730000000002
    59   1      14.135080506972677      109.03138048176727      22.492730000000002
    60   1      17.028222284206546      106.28312984133723      14.287419999999999
    61   1      17.028222284206546      106.28312984133723      18.390070000000001
    62   1      17.028222284206546      106.28312984133723      22.492730000000002
    63   1      19.921364061440418      103.53487920090723      14.287419999999999
    64   1      19.921364061440418      103.53487920090723      18.390070000000001
    65   1      13.778022635924033      97.024745699447024      3.0874199999999998
    66   1      13.778022635924033      97.024745699447024      7.1900700000000004
    67   1      13.778022635924033      97.024745699447024      11.292730000000001
    68   1      25.707633478419197      98.038378282546887      14.287419999999999
    69   1      24.771510947264645      85.452652740141119      7.1900700000000004
    70   1       30.26824821544033      79.666613510482506      3.0874199999999998
    71   1       30.26824821544033      79.666613510482506      7.1900700000000004
    72   1       30.26824821544033      79.666613510482506      11.292730000000001
    73   1      103.67746447701252      29.477013196092425      14.287419999999999
    74   1      103.67746447701252      29.477013196092425      18.390070000000001
    75   1      103.67746447701252      29.477013196092425      22.492730000000002
    76   1      97.891187810039398      34.973507226958148      14.287419999999999
    77   1      97.891187810039398      34.973507226958148      18.390070000000001
    78   1      97.891187810039398      34.973507226958148      22.492730000000002
    79   1      24.771510947264645      85.452652740141119      3.0874199999999998
    80   1      49.506852760286399      59.415450831697171      3.0874199999999998
    81   1      24.771510947264645      85.452652740141119      11.292730000000001
    82   1      27.519876137605177      82.559636750308982      3.0874199999999998
    83   1      106.57059900425205      26.728755668167786      14.287419999999999
    84   1      106.57059900425205      26.728755668167786      18.390070000000001
    85   1      106.57059900425205      26.728755668167786      22.492730000000002
    86   1      22.023138869429491      88.345675979967595      3.0874199999999998
    87   1      22.023138869429491      88.345675979967595      7.1900700000000004
    88   1      22.023138869429491      88.345675979967595      11.292730000000001
    89   1      100.78432958727328      32.225256586528126      14.287419999999999
    90   1      100.78432958727328      32.225256586528126      18.390070000000001
    91   1      63.248706261967541      44.950341882559123      7.1900700000000004
    92   1      37.135295313061874      92.686768500990382      18.390070000000001
    93   1      37.135295313061874      92.686768500990382      22.492730000000002
    94   1      31.349025896083084      98.183269419350708      14.287419999999999
    95   1      31.349025896083084      98.183269419350708      18.390070000000001
    96   1      31.349025896083084      98.183269419350708      22.492730000000002
    97   1      34.242160423322616      95.435011891426072      14.287419999999999
    98   1      34.242160423322616      95.435011891426072      18.390070000000001
    99   1      34.242160423322616      95.435011891426072      22.492730000000002
   100   1      68.745450417637841      39.164295402906163      3.0874199999999998
   101   1      68.745450417637841      39.164295402906163      7.1900700000000004
   102   1      68.745450417637841      39.164295402906163      11.292730000000001
   103   1      37.135295313061874      92.686768500990382      14.287419999999999
   104   1      63.248706261967541      44.950341882559123      11.292730000000001
   105   1      40.028437090295739      89.938517860560367      14.287419999999999
   106   1      40.028437090295739      89.938517860560367      18.390070000000001
   107   1      40.028437090295739      89.938517860560367      22.492730000000002
   108   1      65.997078339802698      42.057318642732639      3.0874199999999998
   109   1      65.997078339802698      42.057318642732639      7.1900700000000004
   110   1      65.997078339802698      42.057318642732639      11.292730000000001
   111   1      60.500334184132392      47.843365122385599      3.0874199999999998
   112   1      60.500334184132392      47.843365122385599      7.1900700000000004
   113   1      60.500334184132392      47.843365122385599      11.292730000000001
   114   1      109.31884964468207      29.621897445401657      18.390070000000001
   115   1       82.48731080681361      24.699179203773785      3.0874199999999998
   116   1       82.48731080681361      24.699179203773785      7.1900700000000004
   117   1       82.48731080681361      24.699179203773785      11.292730000000001
   118   1      25.562749229109965      103.67976345021643      14.287419999999999
   119   1      25.562749229109965      103.67976345021643      18.390070000000001
   120   1      25.562749229109965      103.67976345021643      22.492730000000002
   121   1      76.990566651143297      30.485225683426737      3.0874199999999998
   122   1      76.990566651143297      30.485225683426737      7.1900700000000004
   123   1      76.990566651143297      30.485225683426737      11.292730000000001
   124   1      109.31884964468207      29.621897445401657      14.287419999999999
   125   1      42.921571617535271      87.190260332635717      14.287419999999999
   126   1      109.31884964468207      29.621897445401657      22.492730000000002
   127   1      71.493822495472998      36.271272163079686      3.0874199999999998
   128   1      71.493822495472998      36.271272163079686      7.1900700000000004
   129   1      71.493822495472998      36.271272163079686      11.292730000000001
   130   1      28.455884118849216      100.93152005978075      14.287419999999999
   131   1      28.455884118849216      100.93152005978075      18.390070000000001
   132   1      28.455884118849216      100.93152005978075      22.492730000000002
   133   1      74.242194573308154       33.37824892325321      3.0874199999999998
   134   1      74.242194573308154       33.37824892325321      7.1900700000000004
   135   1      74.242194573308154       33.37824892325321      11.292730000000001
   136   1      60.280401255954914      70.700764102549613      22.492730000000002
   137   1      57.387259478721049      73.449014742979642      22.492730000000002
   138   1      55.003596915956706      53.629404352044212      3.0874199999999998
   139   1      55.003596915956706      53.629404352044212      7.1900700000000004
   140   1      55.003596915956706      53.629404352044212      11.292730000000001
   141   1      49.506852760286399      59.415450831697171      11.292730000000001
   142   1      63.173535783194446      67.952506574624977      14.287419999999999
   143   1      63.173535783194446      67.952506574624977      18.390070000000001
   144   1      63.173535783194446      67.952506574624977      22.492730000000002
   145   1      60.280401255954914      70.700764102549613      14.287419999999999
   146   1      60.280401255954914      70.700764102549613      18.390070000000001
   147   1      57.387259478721049      73.449014742979642      18.390070000000001
   148   1      52.255224838121549      56.522427591870688      3.0874199999999998
   149   1      66.066670672933697      65.204263184189273      14.287419999999999
   150   1      66.066670672933697      65.204263184189273      18.390070000000001
   151   1      66.066670672933697      65.204263184189273      22.492730000000002
   152   1      68.959812450167561      62.456012543759257      14.287419999999999
   153   1      68.959812450167561      62.456012543759257      18.390070000000001
   154   1      68.959812450167561      62.456012543759257      22.492730000000002
   155   1      46.758480682451243      62.308474071523648      3.0874199999999998
   156   1      46.758480682451243      62.308474071523648      7.1900700000000004
   157   1      46.758480682451243      62.308474071523648      11.292730000000001
   158   1      48.707848284508394      81.693766301769998      18.390070000000001
   159   1      42.921571617535271      87.190260332635717      18.390070000000001
   160   1      42.921571617535271      87.190260332635717      22.492730000000002
   161   1      45.814706507274515      84.442016942200027      14.287419999999999
   162   1      45.814706507274515      84.442016942200027      18.390070000000001
   163   1      45.814706507274515      84.442016942200027      22.492730000000002
   164   1      63.248706261967541      44.950341882559123      3.0874199999999998
   165   1      51.600990061742259      78.945515661339968      14.287419999999999
   166   1      51.600990061742259      78.945515661339968      18.390070000000001
   167   1      51.600990061742259      78.945515661339968      22.492730000000002
   168   1      48.707848284508394      81.693766301769998      14.287419999999999
   169   1      25.707633478419197      98.038378282546887      18.390070000000001
   170   1      48.707848284508394      81.693766301769998      22.492730000000002
   171   1      57.751962106297235      50.736388362212075      3.0874199999999998
   172   1      57.751962106297235      50.736388362212075      7.1900700000000004
   173   1      57.751962106297235      50.736388362212075      11.292730000000001
   174   1      52.255224838121549      56.522427591870688      7.1900700000000004
   175   1      52.255224838121549      56.522427591870688      11.292730000000001
   176   1       54.49411770148717      76.197265383409672      14.287419999999999
   177   1       54.49411770148717      76.197265383409672      18.390070000000001
   178   1       54.49411770148717      76.197265383409672      22.492730000000002
   179   1      57.387259478721049      73.449014742979642      14.287419999999999
   180   1      86.463525975396706      40.325117008514631      18.390070000000001
   181   1      77.135217813134616      36.126621001088353      11.292730000000001
   182   1      79.883589890969759      33.233597761261876      3.0874199999999998
   183   1      77.784107893689452      48.569875817299334      22.492730000000002
   184   1       68.89010157962916      44.805690720567782      11.292730000000001
   185   1      71.638473657464303      41.912667480741305      3.0874199999999998
   186   1      71.638473657464303      41.912667480741305      7.1900700000000004
   187   1      71.638473657464303      41.912667480741305      11.292730000000001
   188   1       74.38684573529946      39.019644240914829      3.0874199999999998
   189   1       74.38684573529946      39.019644240914829      7.1900700000000004
   190   1       74.38684573529946      39.019644240914829      11.292730000000001
   191   1      86.463525975396706      40.325117008514631      14.287419999999999
   192   1      77.135217813134616      36.126621001088353      7.1900700000000004
   193   1      86.463525975396706      40.325117008514631      22.492730000000002
   194   1       68.89010157962916      44.805690720567782      3.0874199999999998
   195   1      95.142937169609368      32.080365449724276      14.287419999999999
   196   1      95.142937169609368      32.080365449724276      18.390070000000001
   197   1      95.142937169609368      32.080365449724276      22.492730000000002
   198   1      89.356660865135964      37.576873618078949      22.492730000000002
   199   1      92.249802642369829      34.828622977648912      14.287419999999999
   200   1      92.249802642369829      34.828622977648912      18.390070000000001
   201   1      92.249802642369829      34.828622977648912      22.492730000000002
   202   1       68.89010157962916      44.805690720567782      7.1900700000000004
   203   1      74.890973003950194      51.318119207735023      22.492730000000002
   204   1      71.997838476710669      54.066376735659667      18.390070000000001
   205   1      71.997838476710669      54.066376735659667      22.492730000000002
   206   1      85.380334046640073      27.447551281608927      3.0874199999999998
   207   1      85.380334046640073      27.447551281608927      7.1900700000000004
   208   1      85.380334046640073      27.447551281608927      11.292730000000001
   209   1      80.677249670923302      45.821625176869304      14.287419999999999
   210   1      80.677249670923302      45.821625176869304      18.390070000000001
   211   1      80.677249670923302      45.821625176869304      22.492730000000002
   212   1      74.890973003950194      51.318119207735023      14.287419999999999
   213   1      74.890973003950194      51.318119207735023      18.390070000000001
   214   1      103.82235561381636      23.835620778428542      14.287419999999999
   215   1      77.784107893689452      48.569875817299334      14.287419999999999
   216   1      77.784107893689452      48.569875817299334      18.390070000000001
   217   1      79.883589890969759      33.233597761261876      7.1900700000000004
   218   1      79.883589890969759      33.233597761261876      11.292730000000001
   219   1      89.356660865135964      37.576873618078949      14.287419999999999
   220   1      89.356660865135964      37.576873618078949      18.390070000000001
   221   1      83.570391448157181      43.073374536439282      14.287419999999999
   222   1      83.570391448157181      43.073374536439282      18.390070000000001
   223   1      83.570391448157181      43.073374536439282      22.492730000000002
   224   1      77.135217813134616      36.126621001088353      3.0874199999999998
   225   1      14.279971643776515      103.38998806410338      18.390070000000001
   226   1      8.4936953393031178      108.88649623245804      14.287419999999999
   227   1      8.4936953393031178      108.88649623245804      18.390070000000001
   228   1      8.4936953393031178      108.88649623245804      22.492730000000002
   229   1      11.386837116536979      106.13824559202801      14.287419999999999
   230   1      57.896620155783168      56.377776429879354      7.1900700000000004
   231   1      57.896620155783168      56.377776429879354      11.292730000000001
   232   1      60.644985346123697      53.484760440047218      3.0874199999999998
   233   1      60.644985346123697      53.484760440047218      7.1900700000000004
   234   1      11.386837116536979      106.13824559202801      18.390070000000001
   235   1      11.386837116536979      106.13824559202801      22.492730000000002
   236   1      14.279971643776515      103.38998806410338      14.287419999999999
   237   1      109.60862503079514      18.339119860068202      22.492730000000002
   238   1      14.279971643776515      103.38998806410338      22.492730000000002
   239   1      55.148248077948011      59.270799669705831      3.0874199999999998
   240   1      55.148248077948011      59.270799669705831      7.1900700000000004
   241   1      55.148248077948011      59.270799669705831      11.292730000000001
   242   1      20.066248310749636      97.893494033237658      14.287419999999999
   243   1      20.066248310749636      97.893494033237658      18.390070000000001
   244   1      20.066248310749636      97.893494033237658      22.492730000000002
   245   1      22.959382837989168      95.145236505313022      14.287419999999999
   246   1      52.399876000112862      62.163822909532314      3.0874199999999998
   247   1      52.399876000112862      62.163822909532314      7.1900700000000004
   248   1      60.644985346123697      53.484760440047218      11.292730000000001
   249   1      103.82235561381636      23.835620778428542      18.390070000000001
   250   1      103.82235561381636      23.835620778428542      22.492730000000002
   251   1      98.036072059348626      29.332122059288587      14.287419999999999
   252   1      98.036072059348626      29.332122059288587      18.390070000000001
   253   1      98.036072059348626      29.332122059288587      22.492730000000002
   254   1      100.92921383658248      26.583871418858561      14.287419999999999
   255   1      100.92921383658248      26.583871418858561      18.390070000000001
   256   1      66.141729501794003      47.698713960394265      3.0874199999999998
   257   1      66.141729501794003      47.698713960394265      7.1900700000000004
   258   1      66.141729501794003      47.698713960394265      11.292730000000001
   259   1      71.997838476710669      54.066376735659667      14.287419999999999
   260   1      106.71548325356126      21.087370500498221      14.287419999999999
   261   1      106.71548325356126      21.087370500498221      18.390070000000001
   262   1      106.71548325356126      21.087370500498221      22.492730000000002
   263   1      63.393357423958854      50.591737200220741      3.0874199999999998
   264   1      63.393357423958854      50.591737200220741      7.1900700000000004
   265   1      63.393357423958854      50.591737200220741      11.292730000000001
   266   1      100.92921383658248      26.583871418858561      22.492730000000002
   267   1      57.896620155783168      56.377776429879354      3.0874199999999998
   268   1      109.60862503079514      18.339119860068202      14.287419999999999
   269   1      109.60862503079514      18.339119860068202      18.390070000000001
   270   1        43.0664558668445      81.548875164966162      14.287419999999999
   271   1      34.387044672631845      89.793626723756503      14.287419999999999
   272   1      34.387044672631845      89.793626723756503      18.390070000000001
   273   1      34.387044672631845      89.793626723756503      22.492730000000002
   274   1      2.7845343245834182      108.59683865875294      3.0874199999999998
   275   1      2.7845343245834182      108.59683865875294      7.1900700000000004
   276   1      2.7845343245834182      108.59683865875294      11.292730000000001
   277   1      104.61893170399152      7.1963958528179273      7.1900700000000004
   278   1      104.61893170399152      7.1963958528179273      11.292730000000001
   279   1      40.173321339604961      84.297132692890798      14.287419999999999
   280   1      40.173321339604961      84.297132692890798      18.390070000000001
   281   1      40.173321339604961      84.297132692890798      22.492730000000002
   282   1      31.493910145392316      92.541884251681168      22.492730000000002
   283   1        43.0664558668445      81.548875164966162      18.390070000000001
   284   1      107.36730378182668      4.3033726129914491      3.0874199999999998
   285   1      107.36730378182668      4.3033726129914491      7.1900700000000004
   286   1      107.36730378182668      4.3033726129914491      11.292730000000001
   287   1      48.852739421312236      76.052373884106103      22.492730000000002
   288   1        43.0664558668445      81.548875164966162      22.492730000000002
   289   1      45.959597644078372      78.800624524536133      14.287419999999999
   290   1      45.959597644078372      78.800624524536133      18.390070000000001
   291   1      45.959597644078372      78.800624524536133      22.492730000000002
   292   1      101.87055962615636        10.0894190926444      7.1900700000000004
   293   1      28.600775255653062      95.290127642116843      14.287419999999999
   294   1      25.707633478419197      98.038378282546887      22.492730000000002
   295   1      19.921364061440418      103.53487920090723      22.492730000000002
   296   1      22.814491701185322       100.7866289229769      14.287419999999999
   297   1      22.814491701185322       100.7866289229769      18.390070000000001
   298   1      22.814491701185322       100.7866289229769      22.492730000000002
   299   1       11.02965055808888        99.9177689392735      3.0874199999999998
   300   1       11.02965055808888        99.9177689392735      7.1900700000000004
   301   1      5.5329064024185719      105.70381541892647      3.0874199999999998
   302   1      5.5329064024185719      105.70381541892647      7.1900700000000004
   303   1      5.5329064024185719      105.70381541892647      11.292730000000001
   304   1      101.87055962615636        10.0894190926444      11.292730000000001
   305   1      28.600775255653062      95.290127642116843      18.390070000000001
   306   1      28.600775255653062      95.290127642116843      22.492730000000002
   307   1      31.493910145392316      92.541884251681168      14.287419999999999
   308   1      31.493910145392316      92.541884251681168      18.390070000000001
   309   1      8.2812784802537251      102.81079217909999      3.0874199999999998
   310   1      8.2812784802537251      102.81079217909999      7.1900700000000004
   311   1      8.2812784802537251      102.81079217909999      11.292730000000001
   312   1      37.280186449865717      87.045376083326488      14.287419999999999
   313   1      37.280186449865717      87.045376083326488      18.390070000000001
   314   1      37.280186449865717      87.045376083326488      22.492730000000002
   315   1       69.10469669947679      56.814627376089696      14.287419999999999
   316   1      63.318420032503667      62.311121406955408      22.492730000000002
   317   1      66.211561809737546      59.562870766525386      14.287419999999999
   318   1      66.211561809737546      59.562870766525386      18.390070000000001
   319   1      60.425285505264135      65.059378934880044      14.287419999999999
   320   1      60.425285505264135      65.059378934880044      18.390070000000001
   321   1      60.425285505264135      65.059378934880044      22.492730000000002
   322   1      90.877071314815751      21.661512051950307      7.1900700000000004
   323   1      90.877071314815751      21.661512051950307      11.292730000000001
   324   1      93.625443392650908      18.768488812123831      3.0874199999999998
   325   1      66.211561809737546      59.562870766525386      22.492730000000002
   326   1      63.318420032503667      62.311121406955408      18.390070000000001
   327   1       69.10469669947679      56.814627376089696      18.390070000000001
   328   1       69.10469669947679      56.814627376089696      22.492730000000002
   329   1      88.128706124475229      24.554528041782447      3.0874199999999998
   330   1      88.128706124475229      24.554528041782447      7.1900700000000004
   331   1      88.128706124475229      24.554528041782447      11.292730000000001
   332   1      90.877071314815751      21.661512051950307      3.0874199999999998
   333   1      63.318420032503667      62.311121406955408      14.287419999999999
   334   1      82.631961968804916      30.340574521435403      3.0874199999999998
   335   1      82.631961968804916      30.340574521435403      7.1900700000000004
   336   1      82.631961968804916      30.340574521435403      11.292730000000001
   337   1      48.852739421312236      76.052373884106103      14.287419999999999
   338   1      104.61893170399152      7.1963958528179273      3.0874199999999998
   339   1      51.745874311051494      73.304130493670414      14.287419999999999
   340   1      51.745874311051494      73.304130493670414      18.390070000000001
   341   1      51.745874311051494      73.304130493670414      22.492730000000002
   342   1      54.639008838291012      70.555872965745763      14.287419999999999
   343   1      54.639008838291012      70.555872965745763      18.390070000000001
   344   1      99.122187548321207      12.982442332470878      3.0874199999999998
   345   1      99.122187548321207      12.982442332470878      7.1900700000000004
   346   1      99.122187548321207      12.982442332470878      11.292730000000001
   347   1      101.87055962615636        10.0894190926444      3.0874199999999998
   348   1      79.738938728978454      27.592202443600261      11.292730000000001
   349   1      48.852739421312236      76.052373884106103      18.390070000000001
   350   1      93.625443392650908      18.768488812123831      7.1900700000000004
   351   1      93.625443392650908      18.768488812123831      11.292730000000001
   352   1      54.639008838291012      70.555872965745763      22.492730000000002
   353   1      57.532150615524891      67.807622325315748      14.287419999999999
   354   1      57.532150615524891      67.807622325315748      18.390070000000001
   355   1      57.532150615524891      67.807622325315748      22.492730000000002
   356   1      96.373815470486065      15.875465572297351      3.0874199999999998
   357   1      96.373815470486065      15.875465572297351      7.1900700000000004