(written by ASE)

3480 atoms
3 atom types

0.0      48.050527278882271  xlo xhi
0.0      48.050527278882271  ylo yhi
0.0                      50  zlo zhi

Masses

     1       137.3269999646734 # Ba
     2      15.998999995884349 # O
     3      47.866999987686484 # Ti

Atoms # atomic

     1   1      47.139220332140617       22.94826803807862      11.292730000000001
     2   1      47.139220332140617       22.94826803807862      7.1900700000000004
     3   1      47.139220332140617       22.94826803807862      3.0874199999999998
     4   1       47.47060335403939      18.971671775293416      11.292730000000001
     5   1       47.47060335403939      18.971671775293416      7.1900700000000004
     6   1       47.47060335403939      18.971671775293416      3.0874199999999998
     7   1      22.285503655190681      32.889759525496423      3.0874199999999998
     8   1       22.61688667708945      28.913163262711223      11.292730000000001
     9   1       22.61688667708945      28.913163262711223      7.1900700000000004
    10   1       22.61688667708945      28.913163262711223      3.0874199999999998
    11   1      21.954120633291915      36.866355788281624      11.292730000000001
    12   1      21.954120633291915      36.866355788281624      7.1900700000000004
    13   1      21.954120633291915      36.866355788281624      3.0874199999999998
    14   1      22.285503655190681      32.889759525496423      11.292730000000001
    15   1      22.285503655190681      32.889759525496423      7.1900700000000004
    16   1      21.622737611393148      40.842952051066831      11.292730000000001
    17   1     0.58196113099024771      42.996910966581275      14.287419999999999
    18   1     0.25038295221382467      39.020328821527642      22.492730000000002
    19   1     0.25038295221382467      39.020328821527642      18.390070000000001
    20   1     0.25038295221382467      39.020328821527642      14.287419999999999
    21   1      45.813688244545553      38.854653089219426      11.292730000000001
    22   1      45.813688244545553      38.854653089219426      7.1900700000000004
    23   1      45.813688244545553      38.854653089219426      3.0874199999999998
    24   1      46.145071266444319      34.878056826434225      11.292730000000001
    25   1      46.145071266444319      34.878056826434225      7.1900700000000004
    26   1      46.145071266444319      34.878056826434225      3.0874199999999998
    27   1      46.476454288343085      30.901460563649024      11.292730000000001
    28   1      46.476454288343085      30.901460563649024      7.1900700000000004
    29   1      46.476454288343085      30.901460563649024      3.0874199999999998
    30   1      47.801986375938156      14.995075512508214      11.292730000000001
    31   1      47.801986375938156      14.995075512508214      7.1900700000000004
    32   1      46.807837310241851      26.924864300863824      3.0874199999999998
    33   1      2.5691124043060687      18.805863170217442      18.390070000000001
    34   1      2.5691124043060687      18.805863170217442      14.287419999999999
    35   1      3.2322496613985492      26.759015833957516      14.287419999999999
    36   1      2.9006806176249094      22.782444484816267      22.492730000000002
    37   1      2.9006806176249094      22.782444484816267      18.390070000000001
    38   1      2.9006806176249094      22.782444484816267      14.287419999999999
    39   1      44.819538348394452      2.7339136677114202      3.0874199999999998
    40   1       45.15092220074802      46.807845614789834      11.292730000000001
    41   1       45.15092220074802      46.807845614789834      7.1900700000000004
    42   1       45.15092220074802      46.807845614789834      3.0874199999999998
    43   1      3.5638278401749726      30.735597979011143      22.492730000000002
    44   1      3.5638278401749726      30.735597979011143      18.390070000000001
    45   1      3.5638278401749726      30.735597979011143      14.287419999999999
    46   1      3.2322496613985492      26.759015833957516      22.492730000000002
    47   1      3.2322496613985492      26.759015833957516      18.390070000000001
    48   1      3.8953960534938137      34.712179293609971      22.492730000000002
    49   1      1.2428187896607426      2.8995462163701076      14.287419999999999
    50   1      1.9059660122108053      10.852699710564982      14.287419999999999
    51   1      1.5743977988919642      6.8761183959661532      22.492730000000002
    52   1      1.5743977988919642      6.8761183959661532      18.390070000000001
    53   1      1.5743977988919642      6.8761183959661532      14.287419999999999
    54   1      44.488156156950481      6.7104999650390411      11.292730000000001
    55   1      44.488156156950481      6.7104999650390411      7.1900700000000004
    56   1      44.488156156950481      6.7104999650390411      3.0874199999999998
    57   1      44.819538348394452      2.7339136677114202      11.292730000000001
    58   1      44.819538348394452      2.7339136677114202      7.1900700000000004
    59   1      2.2375342255296462      14.829281025163812      22.492730000000002
    60   1      2.2375342255296462      14.829281025163812      18.390070000000001
    61   1      2.2375342255296462      14.829281025163812      14.287419999999999
    62   1      1.9059660122108053      10.852699710564982      22.492730000000002
    63   1      1.9059660122108053      10.852699710564982      18.390070000000001
    64   1      2.5691124043060687      18.805863170217442      22.492730000000002
    65   1      7.8719773680926419      34.380611080291132      18.390070000000001
    66   1      7.8719773680926419      34.380611080291132      14.287419999999999
    67   1      8.5351146251851215      42.333763744031209      14.287419999999999
    68   1      8.2035464118662809      38.357182429432378      22.492730000000002
    69   1      8.2035464118662809      38.357182429432378      18.390070000000001
    70   1      8.2035464118662809      38.357182429432378      14.287419999999999
    71   1      44.156773135051715      10.687096227824243      11.292730000000001
    72   1      44.156773135051715      10.687096227824243      7.1900700000000004
    73   1      44.156773135051715      10.687096227824243      3.0874199999999998
    74   1      8.8666928039615449      46.310345889084836      22.492730000000002
    75   1      8.8666928039615449      46.310345889084836      18.390070000000001
    76   1      8.8666928039615449      46.310345889084836      14.287419999999999
    77   1      8.5351146251851215      42.333763744031209      22.492730000000002
    78   1      8.5351146251851215      42.333763744031209      18.390070000000001
    79   1      1.2428187896607426      2.8995462163701076      22.492730000000002
    80   1      1.2428187896607426      2.8995462163701076      18.390070000000001
    81   1      6.5456845839021147      18.474284160986215      18.390070000000001
    82   1      6.5456845839021147      18.474284160986215      14.287419999999999
    83   1      7.2088309759973788      26.427447620638677      14.287419999999999
    84   1      6.8772627626785381      22.450866306039845      22.492730000000002
    85   1      6.8772627626785381      22.450866306039845      18.390070000000001
    86   1      6.8772627626785381      22.450866306039845      14.287419999999999
    87   1      43.494007091254183       18.64028875339465      3.0874199999999998
    88   1      43.825390113152949      14.663692490609447      11.292730000000001
    89   1      43.825390113152949      14.663692490609447      7.1900700000000004
    90   1      43.825390113152949      14.663692490609447      3.0874199999999998
    91   1      7.5403991893162194      30.404028935237502      22.492730000000002
    92   1      7.5403991893162194      30.404028935237502      18.390070000000001
    93   1      7.5403991893162194      30.404028935237502      14.287419999999999
    94   1      7.2088309759973788      26.427447620638677      22.492730000000002
    95   1      7.2088309759973788      26.427447620638677      18.390070000000001
    96   1      7.8719773680926419      34.380611080291132      22.492730000000002
    97   1      5.2194009347143702      2.5679680375936842      14.287419999999999
    98   1      5.8825473268096342      10.521131497246143      14.287419999999999
    99   1      5.5509791134907944      6.5445501826473125      22.492730000000002
   100   1      5.5509791134907944      6.5445501826473125      18.390070000000001
   101   1      5.5509791134907944      6.5445501826473125      14.287419999999999
   102   1       43.16262406935541      22.616885016179854      11.292730000000001
   103   1       43.16262406935541      22.616885016179854      7.1900700000000004
   104   1       43.16262406935541      22.616885016179854      3.0874199999999998
   105   1      43.494007091254183       18.64028875339465      11.292730000000001
   106   1      43.494007091254183       18.64028875339465      7.1900700000000004
   107   1      6.2141155401284758      14.497712811844972      22.492730000000002
   108   1      6.2141155401284758      14.497712811844972      18.390070000000001
   109   1      6.2141155401284758      14.497712811844972      14.287419999999999
   110   1      5.8825473268096342      10.521131497246143      22.492730000000002
   111   1      5.8825473268096342      10.521131497246143      18.390070000000001
   112   1      6.5456845839021147      18.474284160986215      22.492730000000002
   113   1      12.180127726465109      38.025614216113539      18.390070000000001
   114   1      12.180127726465109      38.025614216113539      14.287419999999999
   115   1      11.848559513146268      34.049032901514714      22.492730000000002
   116   1      11.848559513146268      34.049032901514714      18.390070000000001
   117   1      11.848559513146268      34.049032901514714      14.287419999999999
   118   1      12.511695939783952      42.002195530712363      22.492730000000002
   119   1      12.511695939783952      42.002195530712363      18.390070000000001
   120   1      12.511695939783952      42.002195530712363      14.287419999999999
   121   1      42.831241047456643      26.593481278965058      11.292730000000001
   122   1      42.831241047456643      26.593481278965058      7.1900700000000004
   123   1      42.831241047456643      26.593481278965058      3.0874199999999998
   124   1       12.84326415310279      45.978776845311195      22.492730000000002
   125   1       12.84326415310279      45.978776845311195      18.390070000000001
   126   1       12.84326415310279      45.978776845311195      14.287419999999999
   127   1      5.2194009347143702      2.5679680375936842      22.492730000000002
   128   1      5.2194009347143702      2.5679680375936842      18.390070000000001
   129   1      10.853844077277367      22.119298092721003      18.390070000000001
   130   1      10.853844077277367      22.119298092721003      14.287419999999999
   131   1      10.522265898500944      18.142715947667376      22.492730000000002
   132   1      10.522265898500944      18.142715947667376      18.390070000000001
   133   1      10.522265898500944      18.142715947667376      14.287419999999999
   134   1      11.185412290596206      26.095879407319835      22.492730000000002
   135   1      11.185412290596206      26.095879407319835      18.390070000000001
   136   1      11.185412290596206      26.095879407319835      14.287419999999999
   137   1      42.168475003659111      34.546673804535459      3.0874199999999998
   138   1      42.499858025557877      30.570077541750258      11.292730000000001
   139   1      42.499858025557877      30.570077541750258      7.1900700000000004
   140   1      42.499858025557877      30.570077541750258      3.0874199999999998
   141   1      11.516980503915047      30.072460721918663      22.492730000000002
   142   1      11.516980503915047      30.072460721918663      18.390070000000001
   143   1      11.516980503915047      30.072460721918663      14.287419999999999
   144   1      12.180127726465109      38.025614216113539      22.492730000000002
   145   1      9.5275504626320409      6.2129811388736726      14.287419999999999
   146   1      9.1959822493132002       2.236399824274844      22.492730000000002
   147   1      9.1959822493132002       2.236399824274844      18.390070000000001
   148   1      9.1959822493132002       2.236399824274844      14.287419999999999
   149   1      9.8591286414084642      10.189563283927301      22.492730000000002
   150   1      9.8591286414084642      10.189563283927301      18.390070000000001
   151   1      9.8591286414084642      10.189563283927301      14.287419999999999
   152   1      41.837091981760345      38.523270067320659      11.292730000000001
   153   1      41.837091981760345      38.523270067320659      7.1900700000000004
   154   1      41.837091981760345      38.523270067320659      3.0874199999999998
   155   1      42.168475003659111      34.546673804535459      11.292730000000001
   156   1      42.168475003659111      34.546673804535459      7.1900700000000004
   157   1      10.190697685182103      14.166134633068548      22.492730000000002
   158   1      10.190697685182103      14.166134633068548      18.390070000000001
   159   1      10.190697685182103      14.166134633068548      14.287419999999999
   160   1      10.853844077277367      22.119298092721003      22.492730000000002
   161   1      15.825130862287518      33.717463857741073      18.390070000000001
   162   1      15.825130862287518      33.717463857741073      14.287419999999999
   163   1      16.156709041063941      37.694046002794693      22.492730000000002
   164   1      16.156709041063941      37.694046002794693      18.390070000000001
   165   1      16.156709041063941      37.694046002794693      14.287419999999999
   166   1      41.505708959861579      42.499866330105867      11.292730000000001
   167   1      41.505708959861579      42.499866330105867      7.1900700000000004
   168   1      41.505708959861579      42.499866330105867      3.0874199999999998
   169   1      16.819846298156421       45.64719866653477      22.492730000000002
   170   1      16.819846298156421       45.64719866653477      18.390070000000001
   171   1      16.819846298156421       45.64719866653477      14.287419999999999
   172   1      16.488277254382783      41.670627317393524      22.492730000000002
   173   1      16.488277254382783      41.670627317393524      18.390070000000001
   174   1      16.488277254382783      41.670627317393524      14.287419999999999
   175   1      9.5275504626320409      6.2129811388736726      22.492730000000002
   176   1      9.5275504626320409      6.2129811388736726      18.390070000000001
   177   1      14.498847213099772      17.811147734348534      18.390070000000001
   178   1      14.498847213099772      17.811147734348534      14.287419999999999
   179   1      14.830415426418615      21.787729048947366      22.492730000000002
   180   1      14.830415426418615      21.787729048947366      18.390070000000001
   181   1      14.830415426418615      21.787729048947366      14.287419999999999
   182   1      40.842952051066831      2.4025314762674519      3.0874199999999998
   183   1      41.174325937962813      46.476462592891068      11.292730000000001
   184   1      41.174325937962813      46.476462592891068      7.1900700000000004
   185   1      41.174325937962813      46.476462592891068      3.0874199999999998
   186   1      15.493562648968677      29.740882543142238      22.492730000000002
   187   1      15.493562648968677      29.740882543142238      18.390070000000001
   188   1      15.493562648968677      29.740882543142238      14.287419999999999
   189   1      15.161994435649838      25.764301228543413      22.492730000000002
   190   1      15.161994435649838      25.764301228543413      18.390070000000001
   191   1      15.161994435649838      25.764301228543413      14.287419999999999
   192   1      15.825130862287518      33.717463857741073      22.492730000000002
   193   1      13.504132607685667      5.8814029600972502      14.287419999999999
   194   1      13.172563563912028      1.9048316109560028      22.492730000000002
   195   1      13.172563563912028      1.9048316109560028      18.390070000000001
   196   1      13.172563563912028      1.9048316109560028      14.287419999999999
   197   1       40.51156985962286      6.3791177735950724      11.292730000000001
   198   1       40.51156985962286      6.3791177735950724      7.1900700000000004
   199   1       40.51156985962286      6.3791177735950724      3.0874199999999998
   200   1      40.842952051066831      2.4025314762674519      11.292730000000001
   201   1      40.842952051066831      2.4025314762674519      7.1900700000000004
   202   1      14.167278999780931      13.834566419749708      22.492730000000002
   203   1      14.167278999780931      13.834566419749708      18.390070000000001
   204   1      14.167278999780931      13.834566419749708      14.287419999999999
   205   1      13.835700821004508      9.8579842746960793      22.492730000000002
   206   1      13.835700821004508      9.8579842746960793      18.390070000000001
   207   1      13.835700821004508      9.8579842746960793      14.287419999999999
   208   1      14.498847213099772      17.811147734348534      22.492730000000002
   209   1      19.801712176886344      33.385895644422227      18.390070000000001
   210   1      19.801712176886344      33.385895644422227      14.287419999999999
   211   1      20.133280390205186      37.362476959021052      22.492730000000002
   212   1      20.133280390205186      37.362476959021052      18.390070000000001
   213   1      20.133280390205186      37.362476959021052      14.287419999999999
   214   1      40.180186837724094      10.355714036380276      11.292730000000001
   215   1      40.180186837724094      10.355714036380276      7.1900700000000004
   216   1      40.180186837724094      10.355714036380276      3.0874199999999998
   217   1      20.796427612755252      45.315630453215931      22.492730000000002
   218   1      20.796427612755252      45.315630453215931      18.390070000000001
   219   1      20.796427612755252      45.315630453215931      14.287419999999999
   220   1       20.46485939943641      41.339049138617106      22.492730000000002
   221   1       20.46485939943641      41.339049138617106      18.390070000000001
   222   1       20.46485939943641      41.339049138617106      14.287419999999999
   223   1      13.504132607685667      5.8814029600972502      22.492730000000002
   224   1      13.504132607685667      5.8814029600972502      18.390070000000001
   225   1        18.4754285276986      17.479579521029695      18.390070000000001
   226   1        18.4754285276986      17.479579521029695      14.287419999999999
   227   1      18.806997571472237      21.456150870170941      22.492730000000002
   228   1      18.806997571472237      21.456150870170941      18.390070000000001
   229   1      18.806997571472237      21.456150870170941      14.287419999999999
   230   1      39.517420793926561      18.308906561950682      3.0874199999999998
   231   1      39.848803815825327      14.332310299165478      11.292730000000001
   232   1      39.848803815825327      14.332310299165478      7.1900700000000004
   233   1      39.848803815825327      14.332310299165478      3.0874199999999998
   234   1      19.470143963567502      29.409314329823399      22.492730000000002
   235   1      19.470143963567502      29.409314329823399      18.390070000000001
   236   1      19.470143963567502      29.409314329823399      14.287419999999999
   237   1      19.138575750248663      25.432733015224571      22.492730000000002
   238   1      19.138575750248663      25.432733015224571      18.390070000000001
   239   1      19.138575750248663      25.432733015224571      14.287419999999999
   240   1      19.801712176886344      33.385895644422227      22.492730000000002
   241   1      17.480713922284497      5.5498347467784095      14.287419999999999
   242   1      17.149145708965658      1.5732534321795797      22.492730000000002
   243   1      17.149145708965658      1.5732534321795797      18.390070000000001
   244   1      17.149145708965658      1.5732534321795797      14.287419999999999
   245   1      39.186037772027788      22.285502824735886      11.292730000000001
   246   1      39.186037772027788      22.285502824735886      7.1900700000000004
   247   1      39.186037772027788      22.285502824735886      3.0874199999999998
   248   1      39.517420793926561      18.308906561950682      11.292730000000001
   249   1      39.517420793926561      18.308906561950682      7.1900700000000004
   250   1      18.143860314379758      13.502998206430867      22.492730000000002
   251   1      18.143860314379758      13.502998206430867      18.390070000000001
   252   1      18.143860314379758      13.502998206430867      14.287419999999999
   253   1       17.81228213560334      9.5264160613772386      22.492730000000002
   254   1       17.81228213560334      9.5264160613772386      18.390070000000001
   255   1       17.81228213560334      9.5264160613772386      14.287419999999999
   256   1        18.4754285276986      17.479579521029695      22.492730000000002
   257   1      23.778294321939974      33.054317465645809      18.390070000000001
   258   1      23.778294321939974      33.054317465645809      14.287419999999999
   259   1      24.109862535258817      37.030898780244634      22.492730000000002
   260   1      24.109862535258817      37.030898780244634      18.390070000000001
   261   1      24.109862535258817      37.030898780244634      14.287419999999999
   262   1      38.854654750129022       26.26209908752109      11.292730000000001
   263   1      38.854654750129022       26.26209908752109      7.1900700000000004
   264   1      38.854654750129022       26.26209908752109      3.0874199999999998
   265   1      24.773008927354081      44.984062239897092      22.492730000000002
   266   1      24.773008927354081      44.984062239897092      18.390070000000001
   267   1      24.773008927354081      44.984062239897092      14.287419999999999
   268   1      24.441440714035238      41.007480925298267      22.492730000000002
   269   1      24.441440714035238      41.007480925298267      18.390070000000001
   270   1      24.441440714035238      41.007480925298267      14.287419999999999
   271   1      17.480713922284497      5.5498347467784095      22.492730000000002
   272   1      17.480713922284497      5.5498347467784095      18.390070000000001
   273   1       22.45201067275223      17.148001342253274      18.390070000000001
   274   1       22.45201067275223      17.148001342253274      14.287419999999999
   275   1      22.783578886071069      21.124582656852102      22.492730000000002
   276   1      22.783578886071069      21.124582656852102      18.390070000000001
   277   1      22.783578886071069      21.124582656852102      14.287419999999999
   278   1       38.19188870633149      34.215291613091495      3.0874199999999998
   279   1      38.523271728230256      30.238695350306291      11.292730000000001
   280   1      38.523271728230256      30.238695350306291      7.1900700000000004
   281   1      38.523271728230256      30.238695350306291      3.0874199999999998
   282   1      23.446725278166333      29.077746116504557      22.492730000000002
   283   1      23.446725278166333      29.077746116504557      18.390070000000001
   284   1      23.446725278166333      29.077746116504557      14.287419999999999
   285   1      23.115147099389912      25.101163971450934      22.492730000000002
   286   1      23.115147099389912      25.101163971450934      18.390070000000001
   287   1      23.115147099389912      25.101163971450934      14.287419999999999
   288   1      23.778294321939974      33.054317465645809      22.492730000000002
   289   1      21.457295236883326      5.2182665334595679      14.287419999999999
   290   1      21.125717058106904      1.2416843884059405      22.492730000000002
   291   1      21.125717058106904      1.2416843884059405      18.390070000000001
   292   1      21.125717058106904      1.2416843884059405      14.287419999999999
   293   1      37.860505684432724      38.191887875876695      11.292730000000001
   294   1      37.860505684432724      38.191887875876695      7.1900700000000004
   295   1      37.860505684432724      38.191887875876695      3.0874199999999998
   296   1       38.19188870633149      34.215291613091495      11.292730000000001
   297   1       38.19188870633149      34.215291613091495      7.1900700000000004
   298   1      22.120432493975805      13.171419197199643      22.492730000000002
   299   1      22.120432493975805      13.171419197199643      18.390070000000001
   300   1      22.120432493975805      13.171419197199643      14.287419999999999
   301   1      21.788863450202168      9.1948478480583979      22.492730000000002
   302   1      21.788863450202168      9.1948478480583979      18.390070000000001
   303   1      21.788863450202168      9.1948478480583979      14.287419999999999
   304   1       22.45201067275223      17.148001342253274      22.492730000000002
   305   1      27.754875636538802      32.722749252326963      18.390070000000001
   306   1      27.754875636538802      32.722749252326963      14.287419999999999
   307   1      28.086443849857645      36.699330566925795      22.492730000000002
   308   1      28.086443849857645      36.699330566925795      18.390070000000001
   309   1      28.086443849857645      36.699330566925795      14.287419999999999
   310   1      37.529122662533958      42.168484138661896      11.292730000000001
   311   1      37.529122662533958      42.168484138661896      7.1900700000000004
   312   1      37.529122662533958      42.168484138661896      3.0874199999999998
   313   1      28.749590241952902      44.652494026578246      22.492730000000002
   314   1      28.749590241952902      44.652494026578246      18.390070000000001
   315   1      28.749590241952902      44.652494026578246      14.287419999999999
   316   1      28.418012063176484      40.675911881524627      22.492730000000002
   317   1      28.418012063176484      40.675911881524627      18.390070000000001
   318   1      28.418012063176484      40.675911881524627      14.287419999999999
   319   1      21.457295236883326      5.2182665334595679      22.492730000000002
   320   1      21.457295236883326      5.2182665334595679      18.390070000000001
   321   1      26.428591987351062      16.816433128934431      18.390070000000001
   322   1      26.428591987351062      16.816433128934431      14.287419999999999
   323   1      26.760160200669905      20.793014443533259      22.492730000000002
   324   1      26.760160200669905      20.793014443533259      18.390070000000001
   325   1      26.760160200669905      20.793014443533259      14.287419999999999
   326   1      36.866355788281631      2.0711484543686849      3.0874199999999998
   327   1      37.197739640635191      46.145080401447103      11.292730000000001
   328   1      37.197739640635191      46.145080401447103      7.1900700000000004
   329   1      37.197739640635191      46.145080401447103      3.0874199999999998
   330   1      27.423297457762384      28.746167107273337      22.492730000000002
   331   1      27.423297457762384      28.746167107273337      18.390070000000001
   332   1      27.423297457762384      28.746167107273337      14.287419999999999
   333   1      27.091729244443542      24.769585792674508      22.492730000000002
   334   1      27.091729244443542      24.769585792674508      18.390070000000001
   335   1      27.091729244443542      24.769585792674508      14.287419999999999
   336   1      27.754875636538802      32.722749252326963      22.492730000000002
   337   1      25.433877381936956      4.8866883546831454      14.287419999999999
   338   1      25.102298372705736     0.91011617508710008      22.492730000000002
   339   1      25.102298372705736     0.91011617508710008      18.390070000000001
   340   1      25.102298372705736     0.91011617508710008      14.287419999999999
   341   1      36.534973596837659      6.0477347516963054      11.292730000000001
   342   1      36.534973596837659      6.0477347516963054      7.1900700000000004
   343   1      36.534973596837659      6.0477347516963054      3.0874199999999998
   344   1      36.866355788281631      2.0711484543686849      11.292730000000001
   345   1      36.866355788281631      2.0711484543686849      7.1900700000000004
   346   1      26.097013808574641      12.839850983880803      22.492730000000002
   347   1      26.097013808574641      12.839850983880803      18.390070000000001
   348   1      26.097013808574641      12.839850983880803      14.287419999999999
   349   1      25.765445595255798      8.8632696692819746      22.492730000000002
   350   1      25.765445595255798      8.8632696692819746      18.390070000000001
   351   1      25.765445595255798      8.8632696692819746      14.287419999999999
   352   1      26.428591987351062      16.816433128934431      22.492730000000002
   353   1      31.731456951137634      32.391181039008124      18.390070000000001
   354   1      31.731456951137634      32.391181039008124      14.287419999999999
   355   1      32.063025164456469      36.367762353606956      22.492730000000002
   356   1      32.063025164456469      36.367762353606956      18.390070000000001
   357   1      32.063025164456469      36.367762353606956      14.287419999999999