(written by ASE)

984 atoms
3 atom types

0.0      25.550893100380168  xlo xhi
0.0      25.550893100380168  ylo yhi
0.0                      50  zlo zhi

Masses

     1       137.3269999646734 # Ba
     2      15.998999995884349 # O
     3      47.866999987686484 # Ti

Atoms # atomic

     1   1      22.590732997864471      24.460304718809162      3.0874199999999998
     2   1      22.590732997864471      24.460304718809162      7.1900700000000004
     3   1      22.590732997864471      24.460304718809162      11.292730000000001
     4   1      25.083503621724695      21.344341438983882      3.0874199999999998
     5   1      25.083503621724695      21.344341438983882      7.1900700000000004
     6   1      25.083503621724695      21.344341438983882      11.292730000000001
     7   1      2.3370075989653847      4.5181303575016569      22.492730000000002
     8   1      24.460304718809159      15.735615343986471      3.0874199999999998
     9   1      24.460304718809159      15.735615343986471      7.1900700000000004
    10   1      24.460304718809159      15.735615343986471      11.292730000000001
    11   1      13.866035814353683      22.590726750913991      3.0874199999999998
    12   1      13.866035814353683      22.590726750913991      7.1900700000000004
    13   1      13.866035814353683      22.590726750913991      11.292730000000001
    14   1      14.177632142336213     0.15570680234055778      14.287419999999999
    15   1      14.177632142336213     0.15570680234055778      18.390070000000001
    16   1      14.177632142336213     0.15570680234055778      22.492730000000002
    17   1       3.271760662947734      3.8949470719623145      3.0874199999999998
    18   1       3.271760662947734      3.8949470719623145      7.1900700000000004
    19   1       3.271760662947734      3.8949470719623145      11.292730000000001
    20   1      3.8949533189127905      9.5036809756478178      11.292730000000001
    21   1      6.3877239427730137      6.3877176958225386      3.0874199999999998
    22   1      6.3877239427730137      6.3877176958225386      7.1900700000000004
    23   1      6.3877239427730137      6.3877176958225386      11.292730000000001
    24   1      11.373258943542986     0.15579894486007378      3.0874199999999998
    25   1      11.373258943542986     0.15579894486007378      7.1900700000000004
    26   1      16.358806438213907      19.474763471088711      3.0874199999999998
    27   1      16.358806438213907      19.474763471088711      7.1900700000000004
    28   1      16.358806438213907      19.474763471088711      11.292730000000001
    29   1      11.061686041624741      2.6484992905274463      14.287419999999999
    30   1      11.061686041624741      2.6484992905274463      18.390070000000001
    31   1      11.061686041624741      2.6484992905274463      22.492730000000002
    32   1      1.4021826950525664      12.619644255473098      3.0874199999999998
    33   1      1.4021826950525664      12.619644255473098      7.1900700000000004
    34   1      1.4021826950525664      12.619644255473098      11.292730000000001
    35   1      3.8949533189127905      9.5036809756478178      3.0874199999999998
    36   1      3.8949533189127905      9.5036809756478178      7.1900700000000004
    37   1      5.7645250398574825     0.77899160082512897      3.0874199999999998
    38   1      5.7645250398574825     0.77899160082512897      7.1900700000000004
    39   1      5.7645250398574825     0.77899160082512897      11.292730000000001
    40   1     0.77899003908751052      7.0109103517875937      11.292730000000001
    41   1      7.9457399409132696      5.1412917787143355      14.287419999999999
    42   1      7.9457399409132696      5.1412917787143355      18.390070000000001
    43   1      7.9457399409132696      5.1412917787143355      22.492730000000002
    44   1      18.851577062074131       16.35880019126343      3.0874199999999998
    45   1      18.851577062074131       16.35880019126343      7.1900700000000004
    46   1      18.851577062074131       16.35880019126343      11.292730000000001
    47   1      21.344341438983879      13.242844720126246      3.0874199999999998
    48   1      21.344341438983879      13.242844720126246      7.1900700000000004
    49   1      1.7138461777527063      10.126862699449541      14.287419999999999
    50   1      1.7138461777527063      10.126862699449541      18.390070000000001
    51   1      1.7138461777527063      10.126862699449541      22.492730000000002
    52   1      22.902487061346502      23.836962136032692      14.287419999999999
    53   1      22.902487061346502      23.836962136032692      18.390070000000001
    54   1      22.902487061346502      23.836962136032692      22.492730000000002
    55   1      17.293748472448144       23.21380852350811      14.287419999999999
    56   1      17.293748472448144       23.21380852350811      18.390070000000001
    57   1      17.293748472448144       23.21380852350811      22.492730000000002
    58   1      0.1557973831224545      1.4021764481020909      3.0874199999999998
    59   1      0.1557973831224545      1.4021764481020909      7.1900700000000004
    60   1      0.1557973831224545      1.4021764481020909      11.292730000000001
    61   1      4.8297922784641782      7.6340702112626531      14.287419999999999
    62   1      4.8297922784641782      7.6340702112626531      18.390070000000001
    63   1      4.8297922784641782      7.6340702112626531      22.492730000000002
    64   1      21.344341438983879      13.242844720126246      11.292730000000001
    65   1      23.837112062844103      10.126881440300966      3.0874199999999998
    66   1      23.837112062844103      10.126881440300966      7.1900700000000004
    67   1      23.837112062844103      10.126881440300966      11.292730000000001
    68   1      19.786370731234573     0.77886041486514379      14.287419999999999
    69   1      19.786370731234573     0.77886041486514379      18.390070000000001
    70   1      19.786370731234573     0.77886041486514379      22.492730000000002
    71   1      8.2573019106681826      23.213919406879047      3.0874199999999998
    72   1      8.2573019106681826      23.213919406879047      7.1900700000000004
    73   1      8.2573019106681826      23.213919406879047      11.292730000000001
    74   1      10.750072534528407       20.09795612705377      3.0874199999999998
    75   1      16.670424630523101      3.2716529030520309      14.287419999999999
    76   1      16.670424630523101      3.2716529030520309      18.390070000000001
    77   1      16.670424630523101      3.2716529030520309      22.492730000000002
    78   1      13.554470721123534      5.7644391442884437      14.287419999999999
    79   1      13.554470721123534      5.7644391442884437      18.390070000000001
    80   1      13.554470721123534      5.7644391442884437      22.492730000000002
    81   1      8.5690700297887883      25.083439590482318      14.287419999999999
    82   1      8.5690700297887883      25.083439590482318      18.390070000000001
    83   1      11.996451599508042      5.7645328485455769      7.1900700000000004
    84   1      11.996451599508042      5.7645328485455769      11.292730000000001
    85   1      14.489222223368266      2.6485695687202977      3.0874199999999998
    86   1      14.489222223368266      2.6485695687202977      7.1900700000000004
    87   1      14.489222223368266      2.6485695687202977      11.292730000000001
    88   1      20.409694573159616       20.72101603532122      14.287419999999999
    89   1      20.409694573159616       20.72101603532122      18.390070000000001
    90   1      20.409694573159616       20.72101603532122      22.492730000000002
    91   1      10.750072534528407       20.09795612705377      7.1900700000000004
    92   1      10.750072534528407       20.09795612705377      11.292730000000001
    93   1      13.242843158388631       16.98199284722849      3.0874199999999998
    94   1      13.242843158388631       16.98199284722849      7.1900700000000004
    95   1      13.242843158388631       16.98199284722849      11.292730000000001
    96   1      7.3225847666510662      10.750016311974125      14.287419999999999
    97   1      7.3225847666510662      10.750016311974125      18.390070000000001
    98   1      7.3225847666510662      10.750016311974125      22.492730000000002
    99   1      11.685009883549784      22.590654910983524      22.492730000000002
   100   1      14.800955984261254      20.097862422796634      14.287419999999999
   101   1      14.800955984261254      20.097862422796634      18.390070000000001
   102   1      14.800955984261254      20.097862422796634      22.492730000000002
   103   1      9.5036872225982947      8.8804883196827618      3.0874199999999998
   104   1      9.5036872225982947      8.8804883196827618      7.1900700000000004
   105   1      9.5036872225982947      8.8804883196827618      11.292730000000001
   106   1      11.996451599508042      5.7645328485455769      3.0874199999999998
   107   1      23.525640673871084      18.228223547134331      14.287419999999999
   108   1      23.525640673871084      18.228223547134331      18.390070000000001
   109   1      23.525640673871084      18.228223547134331      22.492730000000002
   110   1      10.438524620412062      8.2572316324753317      14.287419999999999
   111   1      10.438524620412062      8.2572316324753317      18.390070000000001
   112   1      10.438524620412062      8.2572316324753317      22.492730000000002
   113   1      15.735613782248855      13.866029567403208      3.0874199999999998
   114   1      15.735613782248855      13.866029567403208      7.1900700000000004
   115   1      15.735613782248855      13.866029567403208      11.292730000000001
   116   1      4.2066386659395958      13.242808800161013      14.287419999999999
   117   1      4.2066386659395958      13.242808800161013      18.390070000000001
   118   1      4.2066386659395958      13.242808800161013      22.492730000000002
   119   1      25.395109320132931      1.4020140273897266      14.287419999999999
   120   1      25.395109320132931      1.4020140273897266      18.390070000000001
   121   1      25.395109320132931      1.4020140273897266      22.492730000000002
   122   1      1.0906925652281225      15.735601288347901      14.287419999999999
   123   1      1.0906925652281225      15.735601288347901      18.390070000000001
   124   1      1.0906925652281225      15.735601288347901      22.492730000000002
   125   1      18.228378159158602      10.750074096266024      3.0874199999999998
   126   1      18.228378159158602      10.750074096266024      7.1900700000000004
   127   1      18.228378159158602      10.750074096266024      11.292730000000001
   128   1      20.721148783018826      7.6341108164407441      3.0874199999999998
   129   1      22.279155410733367      3.8948002686261374      14.287419999999999
   130   1      22.279155410733367      3.8948002686261374      18.390070000000001
   131   1      17.916902084972726      17.605069934609745      14.287419999999999
   132   1      17.916902084972726      17.605069934609745      18.390070000000001
   133   1      17.916902084972726      17.605069934609745      22.492730000000002
   134   1      7.0109165987380706      11.996451599508042      3.0874199999999998
   135   1      7.0109165987380706      11.996451599508042      7.1900700000000004
   136   1      7.0109165987380706      11.996451599508042      11.292730000000001
   137   1      8.5690700297887883      25.083439590482318      22.492730000000002
   138   1      11.685009883549784      22.590654910983524      14.287419999999999
   139   1      11.685009883549784      22.590654910983524      18.390070000000001
   140   1      22.279155410733367      3.8948002686261374      22.492730000000002
   141   1      20.721148783018826      7.6341108164407441      7.1900700000000004
   142   1      20.721148783018826      7.6341108164407441      11.292730000000001
   143   1       23.21391940687905      4.5181475366154649      3.0874199999999998
   144   1       23.21391940687905      4.5181475366154649      7.1900700000000004
   145   1       23.21391940687905      4.5181475366154649      11.292730000000001
   146   1      19.163209310021895      6.3875927568130253      14.287419999999999
   147   1      19.163209310021895      6.3875927568130253      18.390070000000001
   148   1      19.163209310021895      6.3875927568130253      22.492730000000002
   149   1      2.9603314408904291      24.460285977957732      14.287419999999999
   150   1      2.9603314408904291      24.460285977957732      18.390070000000001
   151   1      2.9603314408904291      24.460285977957732      22.492730000000002
   152   1      2.0253753510176229      18.228378159158602      7.1900700000000004
   153   1      2.0253753510176229      18.228378159158602      11.292730000000001
   154   1      4.5181459748778465      15.112414879333322      3.0874199999999998
   155   1      4.5181459748778465      15.112414879333322      7.1900700000000004
   156   1      4.5181459748778465      15.112414879333322      11.292730000000001
   157   1      21.032848185684202       15.11227744642286      14.287419999999999
   158   1      21.032848185684202       15.11227744642286      18.390070000000001
   159   1      21.032848185684202       15.11227744642286      22.492730000000002
   160   1      2.6485680069826789      23.837112062844103      3.0874199999999998
   161   1      2.6485680069826789      23.837112062844103      7.1900700000000004
   162   1      2.6485680069826789      23.837112062844103      11.292730000000001
   163   1       12.93131710859895      11.373177733186802      14.287419999999999
   164   1       12.93131710859895      11.373177733186802      18.390070000000001
   165   1       12.93131710859895      11.373177733186802      22.492730000000002
   166   1      16.047263209310422      8.8803852449999141      14.287419999999999
   167   1      16.047263209310422      8.8803852449999141      18.390070000000001
   168   1      16.047263209310422      8.8803852449999141      22.492730000000002
   169   1      9.8153710078874781       13.86597022137369      14.287419999999999
   170   1      9.8153710078874781       13.86597022137369      18.390070000000001
   171   1      9.8153710078874781       13.86597022137369      22.492730000000002
   172   1      5.1413386308429008      20.721148783018823      3.0874199999999998
   173   1      5.1413386308429008      20.721148783018823      7.1900700000000004
   174   1      5.1413386308429008      20.721148783018823      11.292730000000001
   175   1      7.6341092547031248      17.605185503193546      3.0874199999999998
   176   1      7.6341092547031248      17.605185503193546      7.1900700000000004
   177   1      7.6341092547031248      17.605185503193546      11.292730000000001
   178   1      6.6994311541264828      16.358754900872484      14.287419999999999
   179   1      6.6994311541264828      16.358754900872484      18.390070000000001
   180   1      6.6994311541264828      16.358754900872484      22.492730000000002
   181   1      6.0762775416018977      21.967493489770842      18.390070000000001
   182   1      6.0762775416018977      21.967493489770842      22.492730000000002
   183   1      9.1922173953628956      19.474708810272048      14.287419999999999
   184   1      9.1922173953628956      19.474708810272048      18.390070000000001
   185   1      9.1922173953628956      19.474708810272048      22.492730000000002
   186   1      2.0253753510176229      18.228378159158602      3.0874199999999998
   187   1      24.148794286395667       12.61948495823597      14.287419999999999
   188   1      24.148794286395667       12.61948495823597      18.390070000000001
   189   1      24.148794286395667       12.61948495823597      22.492730000000002
   190   1      10.126879878563349      14.489222223368264      3.0874199999999998
   191   1      10.126879878563349      14.489222223368264      7.1900700000000004
   192   1      10.126879878563349      14.489222223368264      11.292730000000001
   193   1     0.46753895270353918      21.344339877246263      14.287419999999999
   194   1     0.46753895270353918      21.344339877246263      18.390070000000001
   195   1     0.46753895270353918      21.344339877246263      22.492730000000002
   196   1      3.5834850534150116      18.851547389059373      14.287419999999999
   197   1      3.5834850534150116      18.851547389059373      18.390070000000001
   198   1      3.5834850534150116      18.851547389059373      22.492730000000002
   199   1      24.771947898920253      7.0107463693376113      14.287419999999999
   200   1      24.771947898920253      7.0107463693376113      18.390070000000001
   201   1      24.771947898920253      7.0107463693376113      22.492730000000002
   202   1      12.619650502423573      11.373258943542984      3.0874199999999998
   203   1      12.619650502423573      11.373258943542984      7.1900700000000004
   204   1      12.619650502423573      11.373258943542984      11.292730000000001
   205   1      18.540055697497309      11.996331345711386      14.287419999999999
   206   1      18.540055697497309      11.996331345711386      18.390070000000001
   207   1      18.540055697497309      11.996331345711386      22.492730000000002
   208   1       15.42410959678584      14.489123833898274      22.492730000000002
   209   1      20.097956127053767      2.0253769127552403      3.0874199999999998
   210   1      20.097956127053767      2.0253769127552403      7.1900700000000004
   211   1      20.097956127053767      2.0253769127552403      11.292730000000001
   212   1      12.308163496074368      16.981916322085162      14.287419999999999
   213   1      12.308163496074368      16.981916322085162      18.390070000000001
   214   1      12.308163496074368      16.981916322085162      22.492730000000002
   215   1      6.0762775416018977      21.967493489770842      14.287419999999999
   216   1      21.656001798208784      9.5035388575244983      14.287419999999999
   217   1      21.656001798208784      9.5035388575244983      18.390070000000001
   218   1      21.656001798208784      9.5035388575244983      22.492730000000002
   219   1       15.11241487933332      8.2573034724058001      3.0874199999999998
   220   1       15.11241487933332      8.2573034724058001      7.1900700000000004
   221   1       15.11241487933332      8.2573034724058001      11.292730000000001
   222   1      17.605185503193542        5.14134019258052      3.0874199999999998
   223   1      17.605185503193542        5.14134019258052      7.1900700000000004
   224   1      17.605185503193542        5.14134019258052      11.292730000000001
   225   1       15.42410959678584      14.489123833898274      14.287419999999999
   226   1       15.42410959678584      14.489123833898274      18.390070000000001
   227   1      21.967540341899412      18.851570815123655      3.0874199999999998
   228   1      21.967540341899412      18.851570815123655      7.1900700000000004
   229   1      21.967540341899412      18.851570815123655      11.292730000000001
   230   1      5.4529536996768559      2.0253378693147686      14.287419999999999
   231   1      5.4529536996768559      2.0253378693147686      18.390070000000001
   232   1      5.4529536996768559      2.0253378693147686      22.492730000000002
   233   1      2.3370075989653847      4.5181303575016569      14.287419999999999
   234   1      2.3370075989653847      4.5181303575016569      18.390070000000001
   235   1      11.373258943542986     0.15579894486007378      11.292730000000001
   236   1     0.77899003908751052      7.0109103517875937      3.0874199999999998
   237   1     0.77899003908751052      7.0109103517875937      7.1900700000000004
   238   1      8.8804883196827618      3.2717622246853533      3.0874199999999998
   239   1      8.8804883196827618      3.2717622246853533      7.1900700000000004
   240   1      8.8804883196827618      3.2717622246853533      11.292730000000001
   241   1      16.981999094178963      25.083497374774215      3.0874199999999998
   242   1      16.981999094178963      25.083497374774215      7.1900700000000004
   243   1      16.981999094178963      25.083497374774215      11.292730000000001
   244   1      19.474769718039187      21.967534094948935      3.0874199999999998
   245   1      19.474769718039187      21.967534094948935      7.1900700000000004
   246   1      19.474769718039187      21.967534094948935      11.292730000000001
   247   3      9.1920846476652898       6.076129176528104      9.3132000000000001
   248   3      9.1920846476652898       6.076129176528104      5.2105499999999996
   249   3      11.684855271525514      2.9601658967028248      9.3132000000000001
   250   3      11.684855271525514      2.9601658967028248      5.2105499999999996
   251   3      8.2573159663067521      2.3369154564458698      20.513200000000001
   252   3      8.2573159663067521      2.3369154564458698      16.410550000000001
   253   3        5.14136986559528      4.8297079446327587      20.513200000000001
   254   3        5.14136986559528      4.8297079446327587      16.410550000000001
   255   3       22.27913666988194      21.655937766966407      9.3132000000000001
   256   3       22.27913666988194      21.655937766966407      5.2105499999999996
   257   3      25.395099949707216      24.148708390826627      9.3132000000000001
   258   3      19.786366046021715      24.771901046791687      5.2105499999999996
   259   3       17.91678183117607      7.9457071444232721      5.2105499999999996
   260   3      15.424011207315848      11.061670424248552      9.3132000000000001
   261   3      15.424011207315848      11.061670424248552      5.2105499999999996
   262   3      21.344425772815299      12.307915179792962      16.410550000000001
   263   3      18.228485919054307      14.800699859291758      20.513200000000001
   264   3      11.996585908943265      19.786278588715057      20.513200000000001
   265   3      11.996585908943265      19.786278588715057      16.410550000000001
   266   3       8.880639808231793      22.279071076901946      20.513200000000001
   267   3      20.409552455036298       4.829743864597992      9.3132000000000001
   268   3      20.409552455036298       4.829743864597992      5.2105499999999996
   269   3       17.91678183117607      7.9457071444232721      9.3132000000000001
   270   3      15.112532009654739       17.29348610052817      20.513200000000001
   271   3      15.112532009654739       17.29348610052817      16.410550000000001
   272   3      18.228485919054307      14.800699859291758      16.410550000000001
   273   3      12.931246830406101      14.177625895385736      9.3132000000000001
   274   3      12.931246830406101      14.177625895385736      5.2105499999999996
   275   3      24.460371873526771      9.8151226916060761      20.513200000000001
   276   3      24.460371873526771      9.8151226916060761      16.410550000000001
   277   3      21.344425772815299      12.307915179792962      20.513200000000001
   278   3      3.2719012193334334      21.655917464377364      16.410550000000001
   279   3     0.15595511862196229       24.14870995256425      20.513200000000001
   280   3     0.15595511862196229       24.14870995256425      16.410550000000001
   281   3      10.438476206545877      17.293589175211014      9.3132000000000001
   282   3      10.438476206545877      17.293589175211014      5.2105499999999996
   283   3      7.9457055826856537      20.409552455036295      9.3132000000000001
   284   3      6.3878473200449069      19.163124976190474      20.513200000000001
   285   3      6.3878473200449069      19.163124976190474      16.410550000000001
   286   3      23.837218261002189      15.423861280504434      20.513200000000001
   287   3      23.837218261002189      15.423861280504434      16.410550000000001
   288   3      22.902323078896519      1.7137805847727121      9.3132000000000001
   289   3      22.902323078896519      1.7137805847727121      5.2105499999999996
   290   3       8.880639808231793      22.279071076901946      16.410550000000001
   291   3      5.7646937075203226      24.771863565088836      20.513200000000001
   292   3      5.7646937075203226      24.771863565088836      16.410550000000001
   293   3      3.2719012193334334      21.655917464377364      20.513200000000001
   294   3      7.9457055826856537      20.409552455036295      5.2105499999999996
   295   3      5.4529349588254297      23.525515734861575      9.3132000000000001
   296   3      5.4529349588254297      23.525515734861575      5.2105499999999996
   297   3      9.5038012294444716      16.670338734954061      20.513200000000001
   298   3      9.5038012294444716      16.670338734954061      16.410550000000001
   299   3      15.735693430867414      11.684753758580285      16.410550000000001
   300   3      12.619747330155946      14.177546246767175      20.513200000000001
   301   3      12.619747330155946      14.177546246767175      16.410550000000001
   302   3      18.851639531578886      9.1919612703933975      20.513200000000001
   303   3      18.851639531578886      9.1919612703933975      16.410550000000001
   304   3      20.721270598553097      17.916639713052753      16.410550000000001
   305   3      4.8297423028603736       17.91678183117607      9.3132000000000001
   306   3      4.8297423028603736       17.91678183117607      5.2105499999999996
   307   3        2.33697167900015      21.032745111001351      9.3132000000000001
   308   3        2.33697167900015      21.032745111001351      5.2105499999999996
   309   3      15.735693430867414      11.684753758580285      20.513200000000001
   310   3      23.525515734861578      7.3225144884582161      9.3132000000000001
   311   3      23.525515734861578      7.3225144884582161      5.2105499999999996
   312   3      21.032745111001354      10.438477768283496      9.3132000000000001
   313   3      21.032745111001354      10.438477768283496      5.2105499999999996
   314   3      21.967579385339885      6.6991765908946039      20.513200000000001
   315   3      21.967579385339885      6.6991765908946039      16.410550000000001
   316   3      7.3225129267205968      14.800818551350792      9.3132000000000001
   317   3      7.3225129267205968      14.800818551350792      5.2105499999999996
   318   3      17.605324497841625      20.409432201239643      20.513200000000001
   319   3      17.605324497841625      20.409432201239643      16.410550000000001
   320   3      14.489378397130157      22.902224689426532      20.513200000000001
   321   3      14.489378397130157      22.902224689426532      16.410550000000001
   322   3      20.721270598553097      17.916639713052753      20.513200000000001
   323   3       18.53997448714113      13.554441048108776      9.3132000000000001
   324   3       18.53997448714113      13.554441048108776      5.2105499999999996
   325   3     0.77911653983464002      18.539977610616365      20.513200000000001
   326   3     0.77911653983464002      18.539977610616365      16.410550000000001
   327   3      25.083525486051354       4.206384102707716      20.513200000000001
   328   3      25.083525486051354       4.206384102707716      16.410550000000001
   329   3      3.8950626405461128      16.047185122429475      20.513200000000001
   330   3      3.8950626405461128      16.047185122429475      16.410550000000001
   331   3      16.047210110231383      16.670396519245962      9.3132000000000001
   332   3      16.047210110231383      16.670396519245962      5.2105499999999996
   333   3      10.126954841969054      11.061600146055701      16.410550000000001
   334   3      23.214056839789507      21.032593622452321      16.410550000000001
   335   3      9.8152835505808209      11.684855271525512      9.3132000000000001
   336   3      9.8152835505808209      11.684855271525512      5.2105499999999996
   337   3      11.373432296418681      25.395017177613418      20.513200000000001
   338   3      11.373432296418681      25.395017177613418      16.410550000000001
   339   3      7.0110087412575837      13.554392634242591      20.513200000000001
   340   3      7.0110087412575837      13.554392634242591      16.410550000000001
   341   3      13.554439486371159      19.786359799071239      9.3132000000000001
   342   3      13.554439486371159      19.786359799071239      5.2105499999999996
   343   3      11.061668862510935      22.902323078896519      9.3132000000000001
   344   3      11.061668862510935      22.902323078896519      5.2105499999999996
   345   3      13.242900942680528      8.5688076578688133      20.513200000000001
   346   3      13.242900942680528      8.5688076578688133      16.410550000000001
   347   3      20.098116986028515      23.525378301951115      16.410550000000001
   348   3      14.800818551350792       5.452936520563048      9.3132000000000001
   349   3      14.800818551350792       5.452936520563048      5.2105499999999996
   350   3      12.308047927490568      8.5688998003883281      9.3132000000000001
   351   3      12.308047927490568      8.5688998003883281      5.2105499999999996
   352   3      23.214056839789507      21.032593622452321      20.513200000000001
   353   3      10.126954841969054      11.061600146055701      20.513200000000001
   354   3         16.358847043392      6.0760151696819253      20.513200000000001
   355   3         16.358847043392      6.0760151696819253      16.410550000000001
   356   3      22.590732997864468      1.0904380019962439      20.513200000000001
   357   3      22.590732997864468      1.0904380019962439      16.410550000000001
   358   3      19.474793144103469      3.5832226814950374      20.513200000000001