(written by ASE)

4440 atoms
3 atom types

0.0      54.275023580677079  xlo xhi
0.0      54.275023580677079  ylo yhi
0.0                      50  zlo zhi

Masses

     1       137.3269999646734 # Ba
     2      15.998999995884349 # O
     3      47.866999987686484 # Ti

Atoms # atomic

     1   1       21.04990558308528      6.6743636242637496      11.292730000000001
     2   1       21.04990558308528      6.6743636242637496      7.1900700000000004
     3   1       21.04990558308528      6.6743636242637496      3.0874199999999998
     4   1      18.702877004116729      9.9015279203455062      11.292730000000001
     5   1      18.702877004116729      9.9015279203455062      7.1900700000000004
     6   1       5.353970363221439      2.2741335196171941      22.492730000000002
     7   1       5.353970363221439      2.2741335196171941      18.390070000000001
     8   1       5.353970363221439      2.2741335196171941      14.287419999999999
     9   1      2.1266068239770943      4.6208893339609478      22.492730000000002
    10   1      2.1266068239770943      4.6208893339609478      18.390070000000001
    11   1      50.387760614548291      47.747349787135569      11.292730000000001
    12   1      50.387760614548291      47.747349787135569      7.1900700000000004
    13   1      50.387760614548291      47.747349787135569      3.0874199999999998
    14   1      19.139501117383446      41.587983419639116      22.492730000000002
    15   1      19.139501117383446      41.587983419639116      18.390070000000001
    16   1      19.139501117383446      41.587983419639116      14.287419999999999
    17   1      25.743962741022383     0.22003503210023545      11.292730000000001
    18   1      25.743962741022383     0.22003503210023545      7.1900700000000004
    19   1      10.928087511165671      3.1547272754399649      22.492730000000002
    20   1      2.1266068239770943      4.6208893339609478      14.287419999999999
    21   1      42.466539160529436      51.854649800330527      11.292730000000001
    22   1      42.466539160529436      51.854649800330527      7.1900700000000004
    23   1      42.466539160529436      51.854649800330527      3.0874199999999998
    24   1      52.734789193516846      44.520185491053809      11.292730000000001
    25   1      52.734789193516846      44.520185491053809      7.1900700000000004
    26   1      52.734789193516846      44.520185491053809      3.0874199999999998
    27   1      53.614924910630052      50.094378366104117      11.292730000000001
    28   1      53.614924910630052      50.094378366104117      7.1900700000000004
    29   1      53.614924910630052      50.094378366104117      3.0874199999999998
    30   1      51.267896331661504      53.321542662185877      11.292730000000001
    31   1      51.267896331661504      53.321542662185877      7.1900700000000004
    32   1      45.693703456611189      54.201678379299082      3.0874199999999998
    33   1      49.507624897435093      42.173156912085254      3.0874199999999998
    34   1      47.160596318466538      45.400321208167014      11.292730000000001
    35   1      47.160596318466538      45.400321208167014      7.1900700000000004
    36   1      10.928087511165671      3.1547272754399649      18.390070000000001
    37   1      10.928087511165671      3.1547272754399649      14.287419999999999
    38   1      25.743962741022383     0.22003503210023545      3.0874199999999998
    39   1      3.7405756949091931      23.690312734424896      7.1900700000000004
    40   1      3.7405756949091931      23.690312734424896      3.0874199999999998
    41   1      1.3935471159406412      26.917477030506657      11.292730000000001
    42   1      1.3935471159406412      26.917477030506657      7.1900700000000004
    43   1      1.3935471159406412      26.917477030506657      3.0874199999999998
    44   1      14.008825727896605      16.355848425148178      11.292730000000001
    45   1      14.008825727896605      16.355848425148178      7.1900700000000004
    46   1      14.008825727896605      16.355848425148178      3.0874199999999998
    47   1      11.661797148928054      19.583012721229935      11.292730000000001
    48   1      7.7007320592821698       5.501488971500696      22.492730000000002
    49   1      1.2460130681543233       10.19500648190518      18.390070000000001
    50   1      1.2460130681543233       10.19500648190518      14.287419999999999
    51   1      11.661797148928054      19.583012721229935      7.1900700000000004
    52   1      11.661797148928054      19.583012721229935      3.0874199999999998
    53   1      9.3147685699595026      22.810177017311691      11.292730000000001
    54   1      9.3147685699595026      22.810177017311691      7.1900700000000004
    55   1      9.3147685699595026      22.810177017311691      3.0874199999999998
    56   1      6.0876042738777425       20.46314843834314      11.292730000000001
    57   1      6.0876042738777425       20.46314843834314      7.1900700000000004
    58   1      6.0876042738777425       20.46314843834314      3.0874199999999998
    59   1      3.7405756949091931      23.690312734424896      11.292730000000001
    60   1       4.473368520037825      7.8482447858444502      22.492730000000002
    61   1       4.473368520037825      7.8482447858444502      18.390070000000001
    62   1       4.473368520037825      7.8482447858444502      14.287419999999999
    63   1      49.507624897435093      42.173156912085254      11.292730000000001
    64   1      49.507624897435093      42.173156912085254      7.1900700000000004
    65   1      36.892346285479128       52.73478551744374      3.0874199999999998
    66   1      54.201676173655216      35.718836407282588      11.292730000000001
    67   1      54.201676173655216      35.718836407282588      7.1900700000000004
    68   1      54.201676173655216      35.718836407282588      3.0874199999999998
    69   1      16.502204659109903       4.035321031262737      22.492730000000002
    70   1      16.502204659109903       4.035321031262737      18.390070000000001
    71   1      16.502204659109903       4.035321031262737      14.287419999999999
    72   1      13.274849207226401      6.3820827273234686      22.492730000000002
    73   1      13.274849207226401      6.3820827273234686      18.390070000000001
    74   1      19.729560110993404      1.6885593352020054      22.492730000000002
    75   1      19.729560110993404      1.6885593352020054      18.390070000000001
    76   1      19.729560110993404      1.6885593352020054      14.287419999999999
    77   1      51.854653476403641      38.945992616003501      11.292730000000001
    78   1      51.854653476403641      38.945992616003501      7.1900700000000004
    79   1      51.854653476403641      38.945992616003501      3.0874199999999998
    80   1      1.2460130681543233       10.19500648190518      22.492730000000002
    81   1      39.239374864447676       49.50762122136198      11.292730000000001
    82   1      39.239374864447676       49.50762122136198      7.1900700000000004
    83   1      39.239374864447676       49.50762122136198      3.0874199999999998
    84   1      8.4346328528462937      17.235984142261383      11.292730000000001
    85   1      8.4346328528462937      17.235984142261383      7.1900700000000004
    86   1      8.4346328528462937      17.235984142261383      3.0874199999999998
    87   1      6.9677399909909532      26.037341313393448      11.292730000000001
    88   1      6.9677399909909532      26.037341313393448      7.1900700000000004
    89   1      6.9677399909909532      26.037341313393448      3.0874199999999998
    90   1      13.128690010783396       10.78165555009787      7.1900700000000004
    91   1      13.128690010783396       10.78165555009787      3.0874199999999998
    92   1      10.781661431814845      14.008819846179627      11.292730000000001
    93   1      10.781661431814845      14.008819846179627      7.1900700000000004
    94   1      10.781661431814845      14.008819846179627      3.0874199999999998
    95   1      36.892346285479128       52.73478551744374      11.292730000000001
    96   1      36.892346285479128       52.73478551744374      7.1900700000000004
    97   1     0.36541931233155212      15.769123629849412      22.492730000000002
    98   1     0.36541931233155212      15.769123629849412      18.390070000000001
    99   1     0.36541931233155212      15.769123629849412      14.287419999999999
   100   1      43.933432022384778      43.053292629198467      11.292730000000001
   101   1      43.933432022384778      43.053292629198467      7.1900700000000004
   102   1      43.933432022384778      43.053292629198467      3.0874199999999998
   103   1      6.8201302160985549      11.075600237727951      22.492730000000002
   104   1      6.8201302160985549      11.075600237727951      18.390070000000001
   105   1      6.8201302160985549      11.075600237727951      14.287419999999999
   106   1      13.274849207226401      6.3820827273234686      14.287419999999999
   107   1        10.0474937553429      8.7288444233841957      22.492730000000002
   108   1        10.0474937553429      8.7288444233841957      18.390070000000001
   109   1        10.0474937553429      8.7288444233841957      14.287419999999999
   110   1      41.586403443416231      46.280456925280227      11.292730000000001
   111   1      41.586403443416231      46.280456925280227      7.1900700000000004
   112   1      41.586403443416231      46.280456925280227      3.0874199999999998
   113   1      48.627489180321881      36.598964037034953      11.292730000000001
   114   1      48.627489180321881      36.598964037034953      7.1900700000000004
   115   1      48.627489180321881      36.598964037034953      3.0874199999999998
   116   1      46.280460601353333      39.826128333116706      11.292730000000001
   117   1      46.280460601353333      39.826128333116706      7.1900700000000004
   118   1      46.280460601353333      39.826128333116706      3.0874199999999998
   119   1      3.5927747642150534      13.422361933788681      22.492730000000002
   120   1      3.5927747642150534      13.422361933788681      18.390070000000001
   121   1      15.475712708034969       7.554499341376955      11.292730000000001
   122   1      15.475712708034969       7.554499341376955      7.1900700000000004
   123   1      15.475712708034969       7.554499341376955      3.0874199999999998
   124   1      13.128690010783396       10.78165555009787      11.292730000000001
   125   1      4.6207114120224011      29.264505609475208      11.292730000000001
   126   1      4.6207114120224011      29.264505609475208      7.1900700000000004
   127   1      4.6207114120224011      29.264505609475208      3.0874199999999998
   128   1      3.5927747642150534      13.422361933788681      14.287419999999999
   129   1      50.974511877573455       33.37180782831404      3.0874199999999998
   130   1      25.303685346298479      2.5691589727417536      22.492730000000002
   131   1      25.303685346298479      2.5691589727417536      18.390070000000001
   132   1      25.303685346298479      2.5691589727417536      14.287419999999999
   133   1       17.82274128700352      4.3273350452951984      11.292730000000001
   134   1       17.82274128700352      4.3273350452951984      7.1900700000000004
   135   1       17.82274128700352      4.3273350452951984      3.0874199999999998
   136   1      2.2736828330538517      32.491669905556961      11.292730000000001
   137   1      2.2736828330538517      32.491669905556961      7.1900700000000004
   138   1      2.2736828330538517      32.491669905556961      3.0874199999999998
   139   1      20.169769865972071      1.1001707492134414      11.292730000000001
   140   1      20.169769865972071      1.1001707492134414      7.1900700000000004
   141   1      20.169769865972071      1.1001707492134414      3.0874199999999998
   142   1       28.53104079818198     0.22239727668102335      22.492730000000002
   143   1       28.53104079818198     0.22239727668102335      18.390070000000001
   144   1       28.53104079818198     0.22239727668102335      14.287419999999999
   145   1      22.076329894414979      4.9159206688024826      18.390070000000001
   146   1      22.076329894414979      4.9159206688024826      14.287419999999999
   147   1      18.848966355170635      7.2626764831462394      22.492730000000002
   148   1      18.848966355170635      7.2626764831462394      18.390070000000001
   149   1      28.971127037104136      2.5670636110687868      11.292730000000001
   150   1      28.971127037104136      2.5670636110687868      7.1900700000000004
   151   1      28.971127037104136      2.5670636110687868      3.0874199999999998
   152   1      2.8604399777959877      18.116119859374592      11.292730000000001
   153   1      2.8604399777959877      18.116119859374592      7.1900700000000004
   154   1      2.8604399777959877      18.116119859374592      3.0874199999999998
   155   1     0.51341139882743814      21.343284155456349      11.292730000000001
   156   1     0.51341139882743814      21.343284155456349      7.1900700000000004
   157   1     0.51341139882743814      21.343284155456349      3.0874199999999998
   158   1      18.848966355170635      7.2626764831462394      14.287419999999999
   159   1      50.974511877573455       33.37180782831404      11.292730000000001
   160   1      50.974511877573455       33.37180782831404      7.1900700000000004
   161   1      12.394255451403632        11.9561998752677      14.287419999999999
   162   1      36.012210568365923      47.160592642393432      7.1900700000000004
   163   1      36.012210568365923      47.160592642393432      3.0874199999999998
   164   1      33.665181989397375      50.387756938475192      11.292730000000001
   165   1      33.665181989397375      50.387756938475192      7.1900700000000004
   166   1      33.665181989397375      50.387756938475192      3.0874199999999998
   167   1      31.318153410428824      53.614921234556945      11.292730000000001
   168   1      31.318153410428824      53.614921234556945      7.1900700000000004
   169   1      15.621610903287133      9.6094381792069683      22.492730000000002
   170   1      15.621610903287133      9.6094381792069683      18.390070000000001
   171   1      15.621610903287133      9.6094381792069683      14.287419999999999
   172   1      31.318153410428824      53.614921234556945      3.0874199999999998
   173   1      53.321540456542003      30.144643532232283      11.292730000000001
   174   1      53.321540456542003      30.144643532232283      7.1900700000000004
   175   1      53.321540456542003      30.144643532232283      3.0874199999999998
   176   1      22.076329894414979      4.9159206688024826      22.492730000000002
   177   1      5.9395364602757841      16.649717385672183      14.287419999999999
   178   1      38.359239147334478      43.933428346311679      11.292730000000001
   179   1      38.359239147334478      43.933428346311679      7.1900700000000004
   180   1      38.359239147334478      43.933428346311679      3.0874199999999998
   181   1      36.012210568365923      47.160592642393432      11.292730000000001
   182   1      5.2074685567645389      14.888955563292836      11.292730000000001
   183   1      5.2074685567645389      14.888955563292836      7.1900700000000004
   184   1      5.2074685567645389      14.888955563292836      3.0874199999999998
   185   1      26.624098458135585      5.7942279071505434      11.292730000000001
   186   1      26.624098458135585      5.7942279071505434      7.1900700000000004
   187   1      26.624098458135585      5.7942279071505434      3.0874199999999998
   188   1      7.5544971357330901      11.661791267211077      11.292730000000001
   189   1      7.5544971357330901      11.661791267211077      7.1900700000000004
   190   1      7.5544971357330901      11.661791267211077      3.0874199999999998
   191   1      12.394255451403632        11.9561998752677      22.492730000000002
   192   1      12.394255451403632        11.9561998752677      18.390070000000001
   193   1      40.706267726303025      40.706264050229919      7.1900700000000004
   194   1      40.706267726303025      40.706264050229919      3.0874199999999998
   195   1      9.1668919121592864      14.302955689611453      22.492730000000002
   196   1      9.1668919121592864      14.302955689611453      18.390070000000001
   197   1      12.248548411953214      5.2074707624084056      11.292730000000001
   198   1      12.248548411953214      5.2074707624084056      7.1900700000000004
   199   1      12.248548411953214      5.2074707624084056      3.0874199999999998
   200   1      9.9015257147016413      8.4346269711293207      11.292730000000001
   201   1      9.9015257147016413      8.4346269711293207      7.1900700000000004
   202   1      9.9015257147016413      8.4346269711293207      3.0874199999999998
   203   1      24.277069879167033      9.0213922032323008      11.292730000000001
   204   1      24.277069879167033      9.0213922032323008      7.1900700000000004
   205   1      24.277069879167033      9.0213922032323008      3.0874199999999998
   206   1      9.1668919121592864      14.302955689611453      14.287419999999999
   207   1      5.9395364602757841      16.649717385672183      22.492730000000002
   208   1      5.9395364602757841      16.649717385672183      18.390070000000001
   209   1      19.583018602946908      15.475712708034973      3.0874199999999998
   210   1      30.877802494242715       3.449752728564524      22.492730000000002
   211   1      30.877802494242715       3.449752728564524      18.390070000000001
   212   1      30.877802494242715       3.449752728564524      14.287419999999999
   213   1      45.400324884240128      34.251935458066406      7.1900700000000004
   214   1      45.400324884240128      34.251935458066406      3.0874199999999998
   215   1       43.05329630527158      37.479099754148159      11.292730000000001
   216   1       43.05329630527158      37.479099754148159      7.1900700000000004
   217   1       43.05329630527158      37.479099754148159      3.0874199999999998
   218   1      34.105157946126219      1.1029910325037924      22.492730000000002
   219   1      34.105157946126219      1.1029910325037924      18.390070000000001
   220   1      34.105157946126219      1.1029910325037924      14.287419999999999
   221   1      2.7121751266753056      18.996487169093758      22.492730000000002
   222   1      2.7121751266753056      18.996487169093758      18.390070000000001
   223   1      2.7121751266753056      18.996487169093758      14.287419999999999
   224   1      40.706267726303025      40.706264050229919      11.292730000000001
   225   1      21.195728051231363      10.490031935029737      14.287419999999999
   226   1      47.747347581491702      31.024779249345492      11.292730000000001
   227   1      47.747347581491702      31.024779249345492      7.1900700000000004
   228   1      47.747347581491702      31.024779249345492      3.0874199999999998
   229   1      45.400324884240128      34.251935458066406      11.292730000000001
   230   1      27.650447042359211       5.796514424625256      22.492730000000002
   231   1      27.650447042359211       5.796514424625256      18.390070000000001
   232   1      27.650447042359211       5.796514424625256      14.287419999999999
   233   1      14.595576990921765       1.980306466326649      11.292730000000001
   234   1      14.595576990921765       1.980306466326649      7.1900700000000004
   235   1      14.595576990921765       1.980306466326649      3.0874199999999998
   236   1      21.930041300198482      12.248556499314057      11.292730000000001
   237   1      21.930041300198482      12.248556499314057      7.1900700000000004
   238   1      21.930041300198482      12.248556499314057      3.0874199999999998
   239   1      19.583018602946908      15.475712708034973      11.292730000000001
   240   1      19.583018602946908      15.475712708034973      7.1900700000000004
   241   1       50.09437616046025      27.797614953263736      11.292730000000001
   242   1       50.09437616046025      27.797614953263736      7.1900700000000004
   243   1       50.09437616046025      27.797614953263736      3.0874199999999998
   244   1       24.42309159047571      8.1432761206859858      22.492730000000002
   245   1       24.42309159047571      8.1432761206859858      18.390070000000001
   246   1       24.42309159047571      8.1432761206859858      14.287419999999999
   247   1      4.3273328396513326      9.3147626882425261      3.0874199999999998
   248   1      1.9803042606827812      12.541926984324284      11.292730000000001
   249   1      1.9803042606827812      12.541926984324284      7.1900700000000004
   250   1      1.9803042606827812      12.541926984324284      3.0874199999999998
   251   1      17.235990023978356      18.702877004116729      11.292730000000001
   252   1      17.235990023978356      18.702877004116729      7.1900700000000004
   253   1      17.235990023978356      18.702877004116729      3.0874199999999998
   254   1       6.674361418619883      6.0875983921607686      11.292730000000001
   255   1      21.195728051231363      10.490031935029737      22.492730000000002
   256   1      21.195728051231363      10.490031935029737      18.390070000000001
   257   1      52.441404739428805      24.570450657181976      3.0874199999999998
   258   1      14.741011265747385      15.183563414512044      22.492730000000002
   259   1      14.741011265747385      15.183563414512044      18.390070000000001
   260   1      14.741011265747385      15.183563414512044      14.287419999999999
   261   1       6.674361418619883      6.0875983921607686      7.1900700000000004
   262   1       6.674361418619883      6.0875983921607686      3.0874199999999998
   263   1      4.3273328396513326      9.3147626882425261      11.292730000000001
   264   1      4.3273328396513326      9.3147626882425261      7.1900700000000004
   265   1      14.888961445009807      21.930041300198486      11.292730000000001
   266   1      14.888961445009807      21.930041300198486      7.1900700000000004
   267   1      14.888961445009807      21.930041300198486      3.0874199999999998
   268   1      9.0213841158714576      2.8604421834398548      11.292730000000001
   269   1      9.0213841158714576      2.8604421834398548      7.1900700000000004
   270   1      17.968366717630886      12.836801718451314      22.492730000000002
   271   1      17.968366717630886      12.836801718451314      18.390070000000001
   272   1      17.968366717630886      12.836801718451314      14.287419999999999
   273   1      11.513655813863883      17.530325110572775      18.390070000000001
   274   1      11.513655813863883      17.530325110572775      14.287419999999999
   275   1      9.0213841158714576      2.8604421834398548      3.0874199999999998
   276   1      1.1001685435695749      6.9677341092739749      7.1900700000000004
   277   1      1.1001685435695749      6.9677341092739749      3.0874199999999998
   278   1      12.541932866041256      25.157205596280242      11.292730000000001
   279   1      12.541932866041256      25.157205596280242      7.1900700000000004
   280   1      12.541932866041256      25.157205596280242      3.0874199999999998
   281   1      10.194904287072706      28.384369892361999      11.292730000000001
   282   1      10.194904287072706      28.384369892361999      7.1900700000000004
   283   1      10.194904287072706      28.384369892361999      3.0874199999999998
   284   1      8.2862922746195391      19.877080924916527      22.492730000000002
   285   1      8.2862922746195391      19.877080924916527      18.390070000000001
   286   1      8.2862922746195391      19.877080924916527      14.287419999999999
   287   1      52.441404739428805      24.570450657181976      11.292730000000001
   288   1      52.441404739428805      24.570450657181976      7.1900700000000004
   289   1      1.8315813708525357       24.57060431703799      22.492730000000002
   290   1      1.8315813708525357       24.57060431703799      18.390070000000001
   291   1      1.8315813708525357       24.57060431703799      14.287419999999999
   292   1      32.785046272284163      44.813564063424877      11.292730000000001
   293   1      32.785046272284163      44.813564063424877      7.1900700000000004
   294   1      32.785046272284163      44.813564063424877      3.0874199999999998
   295   1      5.0589368227360367      22.223842620977258      22.492730000000002
   296   1      5.0589368227360367      22.223842620977258      18.390070000000001
   297   1      5.0589368227360367      22.223842620977258      14.287419999999999
   298   1      30.438017693315615      48.040728359506637      11.292730000000001
   299   1      30.438017693315615      48.040728359506637      7.1900700000000004
   300   1      30.438017693315615      48.040728359506637      3.0874199999999998
   301   1      28.090989114347064       51.26789265558839      11.292730000000001
   302   1      28.090989114347064       51.26789265558839      7.1900700000000004
   303   1      28.090989114347064       51.26789265558839      3.0874199999999998
   304   1      11.513655813863883      17.530325110572775      22.492730000000002
   305   1      36.451919642186944      4.3303464843872943      18.390070000000001
   306   1      36.451919642186944      4.3303464843872943      14.287419999999999
   307   1      35.132074851252717      41.586399767343124      11.292730000000001
   308   1      35.132074851252717      41.586399767343124      7.1900700000000004
   309   1      35.132074851252717      41.586399767343124      3.0874199999999998
   310   1      3.4471971225381255      3.7405698131922174      11.292730000000001
   311   1      3.4471971225381255      3.7405698131922174      7.1900700000000004
   312   1      3.4471971225381255      3.7405698131922174      3.0874199999999998
   313   1      1.1001685435695749      6.9677341092739749      11.292730000000001
   314   1      7.8478757081041541      31.611534188443759      11.292730000000001
   315   1      7.8478757081041541      31.611534188443759      7.1900700000000004
   316   1      7.8478757081041541      31.611534188443759      3.0874199999999998
   317   1      5.7942198197897001     0.51341360447130335      11.292730000000001
   318   1      5.7942198197897001     0.51341360447130335      7.1900700000000004
   319   1      5.7942198197897001     0.51341360447130335      3.0874199999999998
   320   1      39.679283181431288      1.9835906700435424      22.492730000000002
   321   1      37.479103430221265      38.359235471261364      7.1900700000000004
   322   1      37.479103430221265      38.359235471261364      3.0874199999999998
   323   1      33.224558308586467      6.6771162678088682      22.492730000000002
   324   1      33.224558308586467      6.6771162678088682      18.390070000000001
   325   1      33.224558308586467      6.6771162678088682      14.287419999999999
   326   1     0.22003282645636846       1.393541234223667      11.292730000000001
   327   1     0.22003282645636846       1.393541234223667      7.1900700000000004
   328   1     0.22003282645636846       1.393541234223667      3.0874199999999998
   329   1      5.5008471291356047      34.838698484525516      11.292730000000001
   330   1      5.5008471291356047      34.838698484525516      7.1900700000000004
   331   1      5.5008471291356047      34.838698484525516      3.0874199999999998
   332   1      42.902142060686067      53.911858980913571      22.492730000000002
   333   1      42.902142060686067      53.911858980913571      18.390070000000001
   334   1      39.679283181431288      1.9835906700435424      18.390070000000001
   335   1      39.679283181431288      1.9835906700435424      14.287419999999999
   336   1      36.451919642186944      4.3303464843872943      22.492730000000002
   337   1      29.997202856702962      9.0238779638695998      14.287419999999999
   338   1      42.902142060686067      53.911858980913571      14.287419999999999
   339   1      51.703614660513793      52.445691040675605      22.492730000000002
   340   1      51.703614660513793      52.445691040675605      18.390070000000001
   341   1      51.703614660513793      52.445691040675605      14.287419999999999
   342   1      3.1538185501670526      38.065862780607276      11.292730000000001
   343   1      3.1538185501670526      38.065862780607276      7.1900700000000004
   344   1      3.1538185501670526      38.065862780607276      3.0874199999999998
   345   1     0.80678997119850082      41.293027076689029      11.292730000000001
   346   1     0.80678997119850082      41.293027076689029      7.1900700000000004
   347   1     0.80678997119850082      41.293027076689029      3.0874199999999998
   348   1      26.769847404819465      11.370639659930331      22.492730000000002
   349   1       39.82613200918982      35.132071175179604      11.292730000000001
   350   1       39.82613200918982      35.132071175179604      7.1900700000000004
   351   1       39.82613200918982      35.132071175179604      3.0874199999999998
   352   1      37.479103430221265      38.359235471261364      11.292730000000001
   353   1      20.315128413691617      16.064157170334816      22.492730000000002
   354   1      20.315128413691617      16.064157170334816      18.390070000000001
   355   1      20.315128413691617      16.064157170334816      14.287419999999999
   356   1      44.520183285409942      28.677750670376938      11.292730000000001
   357   1      44.520183285409942      28.677750670376938      7.1900700000000004