(written by ASE)

12120 atoms
3 atom types

0.0      89.672617269256747  xlo xhi
0.0      89.672617269256747  ylo yhi
0.0                      50  zlo zhi

Masses

     1       137.3269999646734 # Ba
     2      15.998999995884349 # O
     3      47.866999987686484 # Ti

Atoms # atomic

     1   1      14.516311559661094      38.665769020111952      11.292730000000001
     2   1      14.516311559661094      38.665769020111952      7.1900700000000004
     3   1      14.516311559661094      38.665769020111952      3.0874199999999998
     4   1      18.777981465610644      31.918125002358504      11.292730000000001
     5   1      18.777981465610644      31.918125002358504      7.1900700000000004
     6   1      8.5677159644659167     0.48851058334067021      22.492730000000002
     7   1      8.5677159644659167     0.48851058334067021      18.390070000000001
     8   1      8.5677159644659167     0.48851058334067021      14.287419999999999
     9   1      87.497391789269059      80.039470343845679      11.292730000000001
    10   1      87.497391789269059      80.039470343845679      7.1900700000000004
    11   1      87.497391789269059      80.039470343845679      3.0874199999999998
    12   1      85.366556836294293      83.413292352722394      11.292730000000001
    13   1      85.366556836294293      83.413292352722394      7.1900700000000004
    14   1      85.366556836294293      83.413292352722394      3.0874199999999998
    15   1      70.538459228798217      46.302846449128495      18.390070000000001
    16   1      70.538459228798217      46.302846449128495      14.287419999999999
    17   1      25.170486324534966      21.796658975728324      3.0874199999999998
    18   1      1.8199758279740148      4.7500260763168756      14.287419999999999
    19   1      77.731064921468004      88.030101417501086      7.1900700000000004
    20   1      77.731064921468004      88.030101417501086      3.0874199999999998
    21   1      89.628226742243839      76.665648334968949      11.292730000000001
    22   1      89.628226742243839      76.665648334968949      7.1900700000000004
    23   1      89.628226742243839      76.665648334968949      3.0874199999999998
    24   1       5.193848566184923      2.6192641023842578      22.492730000000002
    25   1       5.193848566184923      2.6192641023842578      18.390070000000001
    26   1       5.193848566184923      2.6192641023842578      14.287419999999999
    27   1      88.740378845171008      85.544127305697174      11.292730000000001
    28   1      88.740378845171008      85.544127305697174      7.1900700000000004
    29   1      88.740378845171008      85.544127305697174      3.0874199999999998
    30   1      86.609543892196228      88.917949314573903      11.292730000000001
    31   1      86.609543892196228      88.917949314573903      7.1900700000000004
    32   1      16.647146512635867       35.29194701123523      3.0874199999999998
    33   1       84.12356978039233      77.908635390870899      7.1900700000000004
    34   1       84.12356978039233      77.908635390870899      3.0874199999999998
    35   1      81.992734827417564      81.282457399747628      11.292730000000001
    36   1      81.992734827417564      81.282457399747628      7.1900700000000004
    37   1       23.03965137156019      25.170480984605053      11.292730000000001
    38   1       23.03965137156019      25.170480984605053      7.1900700000000004
    39   1       23.03965137156019      25.170480984605053      3.0874199999999998
    40   1      10.254641653711543      45.413413037865411      11.292730000000001
    41   1      10.254641653711543      45.413413037865411      7.1900700000000004
    42   1      10.254641653711543      45.413413037865411      3.0874199999999998
    43   1      27.301321277509739      18.422836966851598      11.292730000000001
    44   1      27.301321277509739      18.422836966851598      7.1900700000000004
    45   1      27.301321277509739      18.422836966851598      3.0874199999999998
    46   1      14.072350676609442      1.7316213476189604      22.492730000000002
    47   1      14.072350676609442      1.7316213476189604      18.390070000000001
    48   1      14.072350676609442      1.7316213476189604      14.287419999999999
    49   1      7.3246105401175408      5.9931368405951657      22.492730000000002
    50   1      7.3246105401175408      5.9931368405951657      18.390070000000001
    51   1      7.3246105401175408      5.9931368405951657      14.287419999999999
    52   1      8.1238067007367718      48.787235046742133      11.292730000000001
    53   1      8.1238067007367718      48.787235046742133      7.1900700000000004
    54   1      8.1238067007367718      48.787235046742133      3.0874199999999998
    55   1      5.9929717477619961      52.161057055618862      11.292730000000001
    56   1      5.9929717477619961      52.161057055618862      7.1900700000000004
    57   1      5.9929717477619961      52.161057055618862      3.0874199999999998
    58   1      29.432150890554603      15.049023412863903      11.292730000000001
    59   1      29.432150890554603      15.049023412863903      7.1900700000000004
    60   1      29.432150890554603      15.049023412863903      3.0874199999999998
    61   1      10.698477938398534      3.8623833215515782      22.492730000000002
    62   1      10.698477938398534      3.8623833215515782      18.390070000000001
    63   1      10.698477938398534      3.8623833215515782      14.287419999999999
    64   1       84.12356978039233      77.908635390870899      11.292730000000001
    65   1      22.950844332144932     0.84397325292374781      22.492730000000002
    66   1      22.950844332144932     0.84397325292374781      18.390070000000001
    67   1      22.950844332144932     0.84397325292374781      14.287419999999999
    68   1      72.226407959616509      89.273088473403021      3.0874199999999998
    69   1       88.38523968634189       71.16099137311744      11.292730000000001
    70   1       88.38523968634189       71.16099137311744      7.1900700000000004
    71   1       88.38523968634189       71.16099137311744      3.0874199999999998
    72   1      3.9507378019066333      8.1238988145277844      22.492730000000002
    73   1      3.9507378019066333      8.1238988145277844      18.390070000000001
    74   1      3.9507378019066333      8.1238988145277844      14.287419999999999
    75   1     0.57687040362563946      10.254652333571372      22.492730000000002
    76   1     0.57687040362563946      10.254652333571372      18.390070000000001
    77   1     0.57687040362563946      10.254652333571372      14.287419999999999
    78   1       86.25440473336711      74.534813381994169      11.292730000000001
    79   1       86.25440473336711      74.534813381994169      7.1900700000000004
    80   1       86.25440473336711      74.534813381994169      3.0874199999999998
    81   1      74.357242912591275      85.899266464526306      3.0874199999999998
    82   1      72.226407959616509      89.273088473403021      11.292730000000001
    83   1      72.226407959616509      89.273088473403021      7.1900700000000004
    84   1      19.576976933863939      2.9747267719673363      22.492730000000002
    85   1      19.576976933863939      2.9747267719673363      18.390070000000001
    86   1      19.576976933863939      2.9747267719673363      14.287419999999999
    87   1      33.693820796504149      8.3013793951104518      11.292730000000001
    88   1      33.693820796504149      8.3013793951104518      7.1900700000000004
    89   1      33.693820796504149      8.3013793951104518      3.0874199999999998
    90   1      31.562985843529376      11.675201403987177      11.292730000000001
    91   1      31.562985843529376      11.675201403987177      7.1900700000000004
    92   1      31.562985843529376      11.675201403987177      3.0874199999999998
    93   1      3.8621421347171361      55.534870609606557      11.292730000000001
    94   1      3.8621421347171361      55.534870609606557      7.1900700000000004
    95   1      3.8621421347171361      55.534870609606557      3.0874199999999998
    96   1      35.824655749478929      4.9275573862337252      11.292730000000001
    97   1      37.955490702453702      1.5537353773569991      3.0874199999999998
    98   1      9.4553640591611305      9.3670042388761612      14.287419999999999
    99   1      78.618912818540835      79.151622446772848      11.292730000000001
   100   1      78.618912818540835      79.151622446772848      7.1900700000000004
   101   1      78.618912818540835      79.151622446772848      3.0874199999999998
   102   1      76.488077865566055      82.525444455649577      11.292730000000001
   103   1      16.203104195653033      5.1054887458999563      22.492730000000002
   104   1      16.203104195653033      5.1054887458999563      18.390070000000001
   105   1      16.203104195653033      5.1054887458999563      14.287419999999999
   106   1      12.829236797372038      7.2362422649435425      22.492730000000002
   107   1      12.829236797372038      7.2362422649435425      18.390070000000001
   108   1      12.829236797372038      7.2362422649435425      14.287419999999999
   109   1      76.488077865566055      82.525444455649577      7.1900700000000004
   110   1      76.488077865566055      82.525444455649577      3.0874199999999998
   111   1      74.357242912591275      85.899266464526306      11.292730000000001
   112   1      74.357242912591275      85.899266464526306      7.1900700000000004
   113   1      4.7499846918600426       46.65640009376736      3.0874199999999998
   114   1       6.081496660880136      11.497757757919748      22.492730000000002
   115   1       6.081496660880136      11.497757757919748      18.390070000000001
   116   1       6.081496660880136      11.497757757919748      14.287419999999999
   117   1      80.749747771515601      75.777800437896119      11.292730000000001
   118   1      80.749747771515601      75.777800437896119      7.1900700000000004
   119   1      80.749747771515601      75.777800437896119      3.0874199999999998
   120   1      9.4553640591611305      9.3670042388761612      22.492730000000002
   121   1      9.4553640591611305      9.3670042388761612      18.390070000000001
   122   1      35.824655749478929      4.9275573862337252      7.1900700000000004
   123   1      35.824655749478929      4.9275573862337252      3.0874199999999998
   124   1      1.7313071817423606      58.908692618483279      11.292730000000001
   125   1      1.7313071817423606      58.908692618483279      7.1900700000000004
   126   1      1.7313071817423606      58.908692618483279      3.0874199999999998
   127   1      37.955490702453702      1.5537353773569991      11.292730000000001
   128   1      37.955490702453702      1.5537353773569991      7.1900700000000004
   129   1      85.011417677465161       69.03015642014266      7.1900700000000004
   130   1      85.011417677465161       69.03015642014266      3.0874199999999998
   131   1      82.880582724490381      72.403978429019389      11.292730000000001
   132   1      82.880582724490381      72.403978429019389      7.1900700000000004
   133   1      82.880582724490381      72.403978429019389      3.0874199999999998
   134   1      2.7076323775582565      13.628525071782279      22.492730000000002
   135   1      2.7076323775582565      13.628525071782279      18.390070000000001
   136   1      2.7076323775582565      13.628525071782279      14.287419999999999
   137   1      0.4883201258404069      53.404035656631777      11.292730000000001
   138   1      0.4883201258404069      53.404035656631777      7.1900700000000004
   139   1      0.4883201258404069      53.404035656631777      3.0874199999999998
   140   1      43.460147664305197     0.31074832145504433      11.292730000000001
   141   1      43.460147664305197     0.31074832145504433      7.1900700000000004
   142   1      43.460147664305197     0.31074832145504433      3.0874199999999998
   143   1      4.7499846918600426       46.65640009376736      11.292730000000001
   144   1      4.7499846918600426       46.65640009376736      7.1900700000000004
   145   1      87.142252630439927      65.656334411265945      11.292730000000001
   146   1      87.142252630439927      65.656334411265945      7.1900700000000004
   147   1      87.142252630439927      65.656334411265945      3.0874199999999998
   148   1      85.011417677465161       69.03015642014266      11.292730000000001
   149   1      2.6191497388852669      50.030222102644082      11.292730000000001
   150   1      2.6191497388852669      50.030222102644082      7.1900700000000004
   151   1      2.6191497388852669      50.030222102644082      3.0874199999999998
   152   1      41.329312711330424      3.6845703303317721      11.292730000000001
   153   1      41.329312711330424      3.6845703303317721      7.1900700000000004
   154   1      41.329312711330424      3.6845703303317721      3.0874199999999998
   155   1      6.8808196448348138      43.282578084890638      11.292730000000001
   156   1      6.8808196448348138      43.282578084890638      7.1900700000000004
   157   1      6.8808196448348138      43.282578084890638      3.0874199999999998
   158   1      28.455470589399429      2.0870786772721255      22.492730000000002
   159   1      28.455470589399429      2.0870786772721255      18.390070000000001
   160   1      28.455470589399429      2.0870786772721255      14.287419999999999
   161   1      21.707738907796561      6.3485995101782464      18.390070000000001
   162   1      21.707738907796561      6.3485995101782464      14.287419999999999
   163   1      9.0116545978095903      39.908756076013908      11.292730000000001
   164   1      9.0116545978095903      39.908756076013908      7.1900700000000004
   165   1      9.0116545978095903      39.908756076013908      3.0874199999999998
   166   1      39.198477758355651      7.0583923392084982      11.292730000000001
   167   1      39.198477758355651      7.0583923392084982      7.1900700000000004
   168   1      39.198477758355651      7.0583923392084982      3.0874199999999998
   169   1      37.067642805380871      10.432214348085225      11.292730000000001
   170   1      37.067642805380871      10.432214348085225      7.1900700000000004
   171   1      37.067642805380871      10.432214348085225      3.0874199999999998
   172   1      13.273324503759138      33.161112058260457      11.292730000000001
   173   1      13.273324503759138      33.161112058260457      7.1900700000000004
   174   1      25.081597851188519      4.2178406512047424      22.492730000000002
   175   1      25.081597851188519      4.2178406512047424      18.390070000000001
   176   1      25.081597851188519      4.2178406512047424      14.287419999999999
   177   1      70.983420903714546      83.768431511551526      11.292730000000001
   178   1      70.983420903714546      83.768431511551526      7.1900700000000004
   179   1      70.983420903714546      83.768431511551526      3.0874199999999998
   180   1      18.333866169585647      8.4793614841108624      22.492730000000002
   181   1      18.333866169585647      8.4793614841108624      18.390070000000001
   182   1      18.333866169585647      8.4793614841108624      14.287419999999999
   183   1      14.959998771304656      10.610115003154451      22.492730000000002
   184   1      14.959998771304656      10.610115003154451      18.390070000000001
   185   1      14.959998771304656      10.610115003154451      14.287419999999999
   186   1       68.85258595073978      87.142253520428241      11.292730000000001
   187   1       68.85258595073978      87.142253520428241      7.1900700000000004
   188   1       68.85258595073978      87.142253520428241      3.0874199999999998
   189   1      89.273087583414707      62.282512402389216      11.292730000000001
   190   1      89.273087583414707      62.282512402389216      7.1900700000000004
   191   1      89.273087583414707      62.282512402389216      3.0874199999999998
   192   1      21.707738907796561      6.3485995101782464      22.492730000000002
   193   1       8.212258634812752      14.871630496130656      14.287419999999999
   194   1      13.273324503759138      33.161112058260457      3.0874199999999998
   195   1      11.142489550784365      36.534934067137179      11.292730000000001
   196   1      11.142489550784365      36.534934067137179      7.1900700000000004
   197   1      11.142489550784365      36.534934067137179      3.0874199999999998
   198   1      34.936807852406098       13.80603635696195      11.292730000000001
   199   1      34.936807852406098       13.80603635696195      7.1900700000000004
   200   1      34.936807852406098       13.80603635696195      3.0874199999999998
   201   1      15.404159456733915      29.787290049383728      11.292730000000001
   202   1      15.404159456733915      29.787290049383728      7.1900700000000004
   203   1      15.404159456733915      29.787290049383728      3.0874199999999998
   204   1      11.586126033093747      12.740876977087069      22.492730000000002
   205   1      11.586126033093747      12.740876977087069      18.390070000000001
   206   1      11.586126033093747      12.740876977087069      14.287419999999999
   207   1      73.114255856689326      80.394609502674797      7.1900700000000004
   208   1      73.114255856689326      80.394609502674797      3.0874199999999998
   209   1      21.796664315658237      19.665824022753551      7.1900700000000004
   210   1      77.375925762638872      73.646965484921353      11.292730000000001
   211   1      77.375925762638872      73.646965484921353      7.1900700000000004
   212   1      77.375925762638872      73.646965484921353      3.0874199999999998
   213   1       4.838385896601844      17.002392470063274      22.492730000000002
   214   1       4.838385896601844      17.002392470063274      18.390070000000001
   215   1       4.838385896601844      17.002392470063274      14.287419999999999
   216   1      1.4645184983208497      19.133145989106861      22.492730000000002
   217   1      1.4645184983208497      19.133145989106861      18.390070000000001
   218   1      1.4645184983208497      19.133145989106861      14.287419999999999
   219   1      75.245090809664106      77.020787493798068      11.292730000000001
   220   1      75.245090809664106      77.020787493798068      7.1900700000000004
   221   1      75.245090809664106      77.020787493798068      3.0874199999999998
   222   1      73.114255856689326      80.394609502674797      11.292730000000001
   223   1       8.212258634812752      14.871630496130656      22.492730000000002
   224   1       8.212258634812752      14.871630496130656      18.390070000000001
   225   1      79.506760715613652      70.273143476044623      11.292730000000001
   226   1      79.506760715613652      70.273143476044623      7.1900700000000004
   227   1      79.506760715613652      70.273143476044623      3.0874199999999998
   228   1      37.333972699823953      1.1994359225068263      22.492730000000002
   229   1      37.333972699823953      1.1994359225068263      18.390070000000001
   230   1      37.333972699823953      1.1994359225068263      14.287419999999999
   231   1      33.960099961613039      3.3301978964394463      22.492730000000002
   232   1      33.960099961613039      3.3301978964394463      18.390070000000001
   233   1      33.960099961613039      3.3301978964394463      14.287419999999999
   234   1      17.534994409708688      26.413468040507002      11.292730000000001
   235   1      17.534994409708688      26.413468040507002      7.1900700000000004
   236   1      17.534994409708688      26.413468040507002      3.0874199999999998
   237   1      32.805972899431325      17.179858365838676      11.292730000000001
   238   1      32.805972899431325      17.179858365838676      7.1900700000000004
   239   1      32.805972899431325      17.179858365838676      3.0874199999999998
   240   1      21.796664315658237      19.665824022753551      11.292730000000001
   241   1      81.637595668588432      66.899321467167894      11.292730000000001
   242   1       30.58623256333205      5.4609514154830334      22.492730000000002
   243   1       30.58623256333205      5.4609514154830334      18.390070000000001
   244   1       30.58623256333205      5.4609514154830334      14.287419999999999
   245   1      21.796664315658237      19.665824022753551      3.0874199999999998
   246   1      19.665829362683461      23.039646031630276      11.292730000000001
   247   1      19.665829362683461      23.039646031630276      7.1900700000000004
   248   1      19.665829362683461      23.039646031630276      3.0874199999999998
   249   1      30.675143286386461      20.553671919826371      11.292730000000001
   250   1      30.675143286386461      20.553671919826371      7.1900700000000004
   251   1      30.675143286386461      20.553671919826371      3.0874199999999998
   252   1      28.544308333411688      23.927493928703097      11.292730000000001
   253   1      28.544308333411688      23.927493928703097      7.1900700000000004
   254   1      28.544308333411688      23.927493928703097      3.0874199999999998
   255   1      81.637595668588432      66.899321467167894      7.1900700000000004
   256   1      81.637595668588432      66.899321467167894      3.0874199999999998
   257   1      27.212359825121137      7.5917133894156503      22.492730000000002
   258   1      27.212359825121137      7.5917133894156503      18.390070000000001
   259   1       23.92749926863301      16.292002013876825      11.292730000000001
   260   1       23.92749926863301      16.292002013876825      7.1900700000000004
   261   1       23.92749926863301      16.292002013876825      3.0874199999999998
   262   1      26.413473380436912      27.301315937579826      11.292730000000001
   263   1      26.413473380436912      27.301315937579826      7.1900700000000004
   264   1      26.413473380436912      27.301315937579826      3.0874199999999998
   265   1      26.058328881677873      12.918188459889128      11.292730000000001
   266   1      26.058328881677873      12.918188459889128      7.1900700000000004
   267   1      26.058328881677873      12.918188459889128      3.0874199999999998
   268   1      30.319998787627423       6.170544442135677      11.292730000000001
   269   1      27.212359825121137      7.5917133894156503      14.287419999999999
   270   1      83.768430621563198      63.525499458291165      11.292730000000001
   271   1      83.768430621563198      63.525499458291165      7.1900700000000004
   272   1      83.768430621563198      63.525499458291165      3.0874199999999998
   273   1      63.347928988888278       88.38524057633019      3.0874199999999998
   274   1      88.030100527512744      56.777855440537714      11.292730000000001
   275   1      88.030100527512744      56.777855440537714      7.1900700000000004
   276   1      88.030100527512744      56.777855440537714      3.0874199999999998
   277   1      17.090752290348245      13.983982401435446      22.492730000000002
   278   1      17.090752290348245      13.983982401435446      18.390070000000001
   279   1      17.090752290348245      13.983982401435446      14.287419999999999
   280   1      23.838492426840148      9.7224669084592392      22.492730000000002
   281   1      23.838492426840148      9.7224669084592392      18.390070000000001
   282   1      23.838492426840148      9.7224669084592392      14.287419999999999
   283   1      20.464619688629234      11.853228882391857      22.492730000000002
   284   1      20.464619688629234      11.853228882391857      18.390070000000001
   285   1      20.464619688629234      11.853228882391857      14.287419999999999
   286   1      85.899265574537978      60.151677449414443      11.292730000000001
   287   1      85.899265574537978      60.151677449414443      7.1900700000000004
   288   1      85.899265574537978      60.151677449414443      3.0874199999999998
   289   1       65.47876394186305      85.011418567453461      11.292730000000001
   290   1       65.47876394186305      85.011418567453461      7.1900700000000004
   291   1       65.47876394186305      85.011418567453461      3.0874199999999998
   292   1      63.347928988888278       88.38524057633019      11.292730000000001
   293   1      13.716879552137334      16.114744375368062      22.492730000000002
   294   1      13.716879552137334      16.114744375368062      18.390070000000001
   295   1      30.319998787627423       6.170544442135677      7.1900700000000004
   296   1      30.319998787627423       6.170544442135677      3.0874199999999998
   297   1      28.189163834652646      9.5443664510124027      11.292730000000001
   298   1      28.189163834652646      9.5443664510124027      7.1900700000000004
   299   1      28.189163834652646      9.5443664510124027      3.0874199999999998
   300   1      24.282638427462139      30.675137946456552      11.292730000000001
   301   1      24.282638427462139      30.675137946456552      7.1900700000000004
   302   1      24.282638427462139      30.675137946456552      3.0874199999999998
   303   1      13.716879552137334      16.114744375368062      14.287419999999999
   304   1      63.347928988888278       88.38524057633019      7.1900700000000004
   305   1      10.343020608745372      18.245503234341562      22.492730000000002
   306   1      10.343020608745372      18.245503234341562      18.390070000000001
   307   1      10.343020608745372      18.245503234341562      14.287419999999999
   308   1      32.450833740602199      2.7967224332589504      11.292730000000001
   309   1      32.450833740602199      2.7967224332589504      7.1900700000000004
   310   1      32.450833740602199      2.7967224332589504      3.0874199999999998
   311   1      22.151803474487366      34.048959955333274      11.292730000000001
   312   1      22.151803474487366      34.048959955333274      7.1900700000000004
   313   1      22.151803474487366      34.048959955333274      3.0874199999999998
   314   1      20.020968521512589      37.422781964210003      11.292730000000001
   315   1      20.020968521512589      37.422781964210003      7.1900700000000004
   316   1      20.020968521512589      37.422781964210003      3.0874199999999998
   317   1      6.9691478705344618      20.376265208274184      22.492730000000002
   318   1      6.9691478705344618      20.376265208274184      18.390070000000001
   319   1      6.9691478705344618      20.376265208274184      14.287419999999999
   320   1      67.609598894837816      81.637596558576746      3.0874199999999998
   321   1      46.212466355359439     0.31178782781161662      22.492730000000002
   322   1      46.212466355359439     0.31178782781161662      18.390070000000001
   323   1      71.871268800787377      74.889952540823288      11.292730000000001
   324   1      71.871268800787377      74.889952540823288      7.1900700000000004
   325   1      71.871268800787377      74.889952540823288      3.0874199999999998
   326   1      3.5952804722534686      22.507018727317771      22.492730000000002
   327   1      3.5952804722534686      22.507018727317771      18.390070000000001
   328   1      3.5952804722534686      22.507018727317771      14.287419999999999
   329   1     0.22140773404256081      24.637780701250389      22.492730000000002
   330   1     0.22140773404256081      24.637780701250389      18.390070000000001
   331   1     0.22140773404256081      24.637780701250389      14.287419999999999
   332   1      69.740433847812596      78.263774549700017      11.292730000000001
   333   1      69.740433847812596      78.263774549700017      7.1900700000000004
   334   1      69.740433847812596      78.263774549700017      3.0874199999999998
   335   1      67.609598894837816      81.637596558576746      11.292730000000001
   336   1      67.609598894837816      81.637596558576746      7.1900700000000004
   337   1      74.002103753762142      71.516130531946573      7.1900700000000004
   338   1      74.002103753762142      71.516130531946573      3.0874199999999998
   339   1      46.212466355359439     0.31178782781161662      14.287419999999999
   340   1      42.838598957078446      2.4425413468552035      22.492730000000002
   341   1      42.838598957078446      2.4425413468552035      18.390070000000001
   342   1      3.5069976359580886      41.151743131915865      11.292730000000001
   343   1      3.5069976359580886      41.151743131915865      7.1900700000000004
   344   1      3.5069976359580886      41.151743131915865      3.0874199999999998
   345   1      1.3761626829833167       44.52556514079258      11.292730000000001
   346   1      1.3761626829833167       44.52556514079258      7.1900700000000004
   347   1      1.3761626829833167       44.52556514079258      3.0874199999999998
   348   1      17.890133568537816      40.796603973086725      11.292730000000001
   349   1      17.890133568537816      40.796603973086725      7.1900700000000004
   350   1      17.890133568537816      40.796603973086725      3.0874199999999998
   351   1      5.6378325889328638      37.777921123039135      11.292730000000001
   352   1      42.838598957078446      2.4425413468552035      14.287419999999999
   353   1      32.716986082375634      8.8348188137640253      22.492730000000002
   354   1      32.716986082375634      8.8348188137640253      18.390070000000001
   355   1      5.6378325889328638      37.777921123039135      7.1900700000000004
   356   1      5.6378325889328638      37.777921123039135      3.0874199999999998
   357   1      15.759298615563042      44.170425981963454      11.292730000000001