(written by ASE)

4632 atoms
3 atom types

0.0      55.436118075348148  xlo xhi
0.0      55.436118075348148  ylo yhi
0.0                      50  zlo zhi

Masses

     1       137.3269999646734 # Ba
     2      15.998999995884349 # O
     3      47.866999987686484 # Ti

Atoms # atomic

     1   1      37.412200502280662      9.1196761416648009      7.1900700000000004
     2   1      37.412200502280662      9.1196761416648009      3.0874199999999998
     3   1      35.401563639449861      12.566482192231891      11.292730000000001
     4   1      35.401563639449861      12.566482192231891      7.1900700000000004
     5   1      35.401563639449861      12.566482192231891      3.0874199999999998
     6   1       31.38029495249851      19.460085655577064      11.292730000000001
     7   1       31.38029495249851      19.460085655577064      7.1900700000000004
     8   1       31.38029495249851      19.460085655577064      3.0874199999999998
     9   1      29.369658089667709      22.906891706144155      11.292730000000001
    10   1      39.422837365111469      5.6728700910977095      11.292730000000001
    11   1      39.422837365111469      5.6728700910977095      7.1900700000000004
    12   1      39.422837365111469      5.6728700910977095      3.0874199999999998
    13   1      37.412200502280662      9.1196761416648009      11.292730000000001
    14   1       41.43347422794227      2.2260640405306185      11.292730000000001
    15   1       41.43347422794227      2.2260640405306185      7.1900700000000004
    16   1       41.43347422794227      2.2260640405306185      3.0874199999999998
    17   1      5.0982584528530497      2.8007800520591464      18.390070000000001
    18   1      5.0982584528530497      2.8007800520591464      14.287419999999999
    19   1      8.5451631181779923     0.79031810445577477      22.492730000000002
    20   1      8.5451631181779923     0.79031810445577477      18.390070000000001
    21   1      52.922824130753824      45.885593671214508      11.292730000000001
    22   1      52.922824130753824      45.885593671214508      7.1900700000000004
    23   1      52.922824130753824      45.885593671214508      3.0874199999999998
    24   1      50.912187267923024      49.332399721781599      11.292730000000001
    25   1      50.912187267923024      49.332399721781599      7.1900700000000004
    26   1      50.912187267923024      49.332399721781599      3.0874199999999998
    27   1      54.358993318490114      51.343036584612399      11.292730000000001
    28   1      54.358993318490114      51.343036584612399      7.1900700000000004
    29   1      54.358993318490114      51.343036584612399      3.0874199999999998
    30   1      52.348356455659307       54.78984263517949      11.292730000000001
    31   1      52.348356455659307       54.78984263517949      7.1900700000000004
    32   1      33.390926776619061      16.013288242798982      3.0874199999999998
    33   1      3.6618106964212216      8.2581553027764691      14.287419999999999
    34   1     0.21490603109627779       10.26861725037984      22.492730000000002
    35   1     0.21490603109627779       10.26861725037984      18.390070000000001
    36   1     0.21490603109627779       10.26861725037984      14.287419999999999
    37   1      47.465381217355933      47.321762858950791      7.1900700000000004
    38   1      47.465381217355933      47.321762858950791      3.0874199999999998
    39   1      45.454744354525126      50.768568909517882      11.292730000000001
    40   1      45.454744354525126      50.768568909517882      7.1900700000000004
    41   1      45.454744354525126      50.768568909517882      3.0874199999999998
    42   1      7.1087290382454293      6.2476897560943447      22.492730000000002
    43   1      7.1087290382454293      6.2476897560943447      18.390070000000001
    44   1      7.1087290382454293      6.2476897560943447      14.287419999999999
    45   1      14.002538368895317      2.2267658608876029      22.492730000000002
    46   1      14.002538368895317      2.2267658608876029      18.390070000000001
    47   1      14.002538368895317      2.2267658608876029      14.287419999999999
    48   1      10.555633703570372      4.2372278084909736      22.492730000000002
    49   1      12.566095651173743      7.6841324738159162      14.287419999999999
    50   1      49.476018080186734        43.8749568083837      11.292730000000001
    51   1      49.476018080186734        43.8749568083837      7.1900700000000004
    52   1      49.476018080186734        43.8749568083837      3.0874199999999998
    53   1      47.465381217355933      47.321762858950791      11.292730000000001
    54   1       19.45990498182363      3.6632085786091744      22.492730000000002
    55   1       19.45990498182363      3.6632085786091744      18.390070000000001
    56   1       19.45990498182363      3.6632085786091744      14.287419999999999
    57   1      16.013000316498687       5.673670526212546      22.492730000000002
    58   1      16.013000316498687       5.673670526212546      18.390070000000001
    59   1      16.013000316498687       5.673670526212546      14.287419999999999
    60   1      22.906809647148574      1.6527466310058034      22.492730000000002
    61   1      22.906809647148574      1.6527466310058034      18.390070000000001
    62   1      22.906809647148574      1.6527466310058034      14.287419999999999
    63   1      3.6618106964212216      8.2581553027764691      22.492730000000002
    64   1      3.6618106964212216      8.2581553027764691      18.390070000000001
    65   1      28.364176260076889      3.0891893487273756      18.390070000000001
    66   1      28.364176260076889      3.0891893487273756      14.287419999999999
    67   1      51.486654943017534       40.42815075781661      11.292730000000001
    68   1      51.486654943017534       40.42815075781661      7.1900700000000004
    69   1      51.486654943017534       40.42815075781661      3.0874199999999998
    70   1      5.6722812818136026      11.705065006811667      22.492730000000002
    71   1      5.6722812818136026      11.705065006811667      18.390070000000001
    72   1      5.6722812818136026      11.705065006811667      14.287419999999999
    73   1      2.2253766164886586       13.71552695441504      22.492730000000002
    74   1      2.2253766164886586       13.71552695441504      18.390070000000001
    75   1      2.2253766164886586       13.71552695441504      14.287419999999999
    76   1      9.1191859471385435      9.6946030592082977      22.492730000000002
    77   1      9.1191859471385435      9.6946030592082977      18.390070000000001
    78   1      9.1191859471385435      9.6946030592082977      14.287419999999999
    79   1      12.566095651173743      7.6841324738159162      22.492730000000002
    80   1      12.566095651173743      7.6841324738159162      18.390070000000001
    81   1      14.576557598777114       11.13103713914086      22.492730000000002
    82   1      14.576557598777114       11.13103713914086      18.390070000000001
    83   1      14.576557598777114       11.13103713914086      14.287419999999999
    84   1      21.470366929426998      7.1101132439341175      22.492730000000002
    85   1      21.470366929426998      7.1101132439341175      18.390070000000001
    86   1      21.470366929426998      7.1101132439341175      14.287419999999999
    87   1      53.497291805848342      36.981344707249519      11.292730000000001
    88   1      53.497291805848342      36.981344707249519      7.1900700000000004
    89   1      53.497291805848342      36.981344707249519      3.0874199999999998
    90   1      24.917271594751945      5.0996512963307481      22.492730000000002
    91   1      24.917271594751945      5.0996512963307481      18.390070000000001
    92   1      24.917271594751945      5.0996512963307481      14.287419999999999
    93   1      31.811085964112088      1.0787187633349966      22.492730000000002
    94   1      31.811085964112088      1.0787187633349966      18.390070000000001
    95   1      31.811085964112088      1.0787187633349966      14.287419999999999
    96   1      28.364176260076889      3.0891893487273756      22.492730000000002
    97   1     0.78893389876708464      19.172893567343355      14.287419999999999
    98   1      7.6827432294169729      15.151969672136611      22.492730000000002
    99   1      7.6827432294169729      15.151969672136611      18.390070000000001
   100   1      7.6827432294169729      15.151969672136611      14.287419999999999
   101   1      42.007938303958028      48.757932046687081      11.292730000000001
   102   1      42.007938303958028      48.757932046687081      7.1900700000000004
   103   1      42.007938303958028      48.757932046687081      3.0874199999999998
   104   1      39.997301441127227      52.204738097254172      11.292730000000001
   105   1      39.997301441127227      52.204738097254172      7.1900700000000004
   106   1      39.997301441127227      52.204738097254172      3.0874199999999998
   107   1      11.129647894741916      13.141507724533241      22.492730000000002
   108   1      11.129647894741916      13.141507724533241      18.390070000000001
   109   1      11.129647894741916      13.141507724533241      14.287419999999999
   110   1      18.023462264102058      9.1205751915374886      22.492730000000002
   111   1      18.023462264102058      9.1205751915374886      18.390070000000001
   112   1      18.023462264102058      9.1205751915374886      14.287419999999999
   113   1      33.821547911715456      4.5256234286599382      18.390070000000001
   114   1      33.821547911715456      4.5256234286599382      14.287419999999999
   115   1      40.715365880154351     0.50470457216345477      14.287419999999999
   116   1      37.268452577040406      2.5151614810565674      22.492730000000002
   117   1      37.268452577040406      2.5151614810565674      18.390070000000001
   118   1      37.268452577040406      2.5151614810565674      14.287419999999999
   119   1      44.018575166788835      45.311125996119991      11.292730000000001
   120   1      44.018575166788835      45.311125996119991      7.1900700000000004
   121   1      44.018575166788835      45.311125996119991      3.0874199999999998
   122   1      40.715365880154351     0.50470457216345477      22.492730000000002
   123   1      40.715365880154351     0.50470457216345477      18.390070000000001
   124   1      4.2358385640920311      17.162431619739984      22.492730000000002
   125   1      4.2358385640920311      17.162431619739984      18.390070000000001
   126   1      4.2358385640920311      17.162431619739984      14.287419999999999
   127   1     0.78893389876708464      19.172893567343355      22.492730000000002
   128   1     0.78893389876708464      19.172893567343355      18.390070000000001
   129   1      20.033924211705429      12.567479856862432      22.492730000000002
   130   1      20.033924211705429      12.567479856862432      18.390070000000001
   131   1      20.033924211705429      12.567479856862432      14.287419999999999
   132   1      26.927733542355316      8.5465559616556899      14.287419999999999
   133   1      23.480828877030373      10.557017909259063      22.492730000000002
   134   1      23.480828877030373      10.557017909259063      18.390070000000001
   135   1      23.480828877030373      10.557017909259063      14.287419999999999
   136   1      46.029212029619636        41.8643199455529      11.292730000000001
   137   1      46.029212029619636        41.8643199455529      7.1900700000000004
   138   1      46.029212029619636        41.8643199455529      3.0874199999999998
   139   1       30.37463820768026      6.5360940140523187      22.492730000000002
   140   1       30.37463820768026      6.5360940140523187      18.390070000000001
   141   1       30.37463820768026      6.5360940140523187      14.287419999999999
   142   1      26.927733542355316      8.5465559616556899      22.492730000000002
   143   1      26.927733542355316      8.5465559616556899      18.390070000000001
   144   1      33.821547911715456      4.5256234286599382      22.492730000000002
   145   1      6.2463005116954013      20.609336285064927      14.287419999999999
   146   1      50.050485755281244      34.970707844418719      11.292730000000001
   147   1      50.050485755281244      34.970707844418719      7.1900700000000004
   148   1      50.050485755281244      34.970707844418719      3.0874199999999998
   149   1      48.039848892450436      38.417513894985809      11.292730000000001
   150   1      48.039848892450436      38.417513894985809      7.1900700000000004
   151   1      48.039848892450436      38.417513894985809      3.0874199999999998
   152   1      13.140109842345291      16.588412389858185      14.287419999999999
   153   1      9.6932051770203422      18.598874337461556      22.492730000000002
   154   1      9.6932051770203422      18.598874337461556      18.390070000000001
   155   1      9.6932051770203422      18.598874337461556      14.287419999999999
   156   1      16.587019546380489      14.577941804465803      22.492730000000002
   157   1      16.587019546380489      14.577941804465803      18.390070000000001
   158   1      16.587019546380489      14.577941804465803      14.287419999999999
   159   1      13.140109842345291      16.588412389858185      22.492730000000002
   160   1      13.140109842345291      16.588412389858185      18.390070000000001
   161   1      39.278923162432783      5.9620711850917649      18.390070000000001
   162   1      39.278923162432783      5.9620711850917649      14.287419999999999
   163   1       46.17273249308267      1.9411472898850239      14.287419999999999
   164   1      42.725827827757719       3.951609237488396      22.492730000000002
   165   1      42.725827827757719       3.951609237488396      18.390070000000001
   166   1      42.725827827757719       3.951609237488396      14.287419999999999
   167   1      52.061122618112044      31.523901793851628      11.292730000000001
   168   1      52.061122618112044      31.523901793851628      7.1900700000000004
   169   1      52.061122618112044      31.523901793851628      3.0874199999999998
   170   1       46.17273249308267      1.9411472898850239      22.492730000000002
   171   1       46.17273249308267      1.9411472898850239      18.390070000000001
   172   1      2.7993958463704569      22.619798232668298      22.492730000000002
   173   1      2.7993958463704569      22.619798232668298      18.390070000000001
   174   1      2.7993958463704569      22.619798232668298      14.287419999999999
   175   1      6.2463005116954013      20.609336285064927      22.492730000000002
   176   1      6.2463005116954013      20.609336285064927      18.390070000000001
   177   1      25.491290824633744      14.003922574584003      22.492730000000002
   178   1      25.491290824633744      14.003922574584003      18.390070000000001
   179   1      25.491290824633744      14.003922574584003      14.287419999999999
   180   1      32.385108793072639      9.9830037180875166      14.287419999999999
   181   1      28.938204127747699       11.99346566569089      22.492730000000002
   182   1      28.938204127747699       11.99346566569089      18.390070000000001
   183   1      28.938204127747699       11.99346566569089      14.287419999999999
   184   1      54.071754442232596      28.077104381073546      11.292730000000001
   185   1      54.071754442232596      28.077104381073546      7.1900700000000004
   186   1      54.071754442232596      28.077104381073546      3.0874199999999998
   187   1      35.832018497107839      7.9725331326951352      22.492730000000002
   188   1      35.832018497107839      7.9725331326951352      18.390070000000001
   189   1      35.832018497107839      7.9725331326951352      14.287419999999999
   190   1      32.385108793072639      9.9830037180875166      22.492730000000002
   191   1      32.385108793072639      9.9830037180875166      18.390070000000001
   192   1      39.278923162432783      5.9620711850917649      22.492730000000002
   193   1      11.703667124623717      22.045779002786499      14.287419999999999
   194   1      36.550495390560144      50.194101234423371      11.292730000000001
   195   1      36.550495390560144      50.194101234423371      7.1900700000000004
   196   1      36.550495390560144      50.194101234423371      3.0874199999999998
   197   1      34.539858527729344      53.640907284990462      11.292730000000001
   198   1      34.539858527729344      53.640907284990462      7.1900700000000004
   199   1      34.539858527729344      53.640907284990462      3.0874199999999998
   200   1      18.597481493983857      18.024846469790749      14.287419999999999
   201   1      15.150571789948659      20.035317055183128      22.492730000000002
   202   1      15.150571789948659      20.035317055183128      18.390070000000001
   203   1      15.150571789948659      20.035317055183128      14.287419999999999
   204   1      22.044386159308797      16.014384522187374      22.492730000000002
   205   1      22.044386159308797      16.014384522187374      18.390070000000001
   206   1      22.044386159308797      16.014384522187374      14.287419999999999
   207   1      18.597481493983857      18.024846469790749      22.492730000000002
   208   1      18.597481493983857      18.024846469790749      18.390070000000001
   209   1      51.630099106010981      3.3775900076065963      18.390070000000001
   210   1      4.8098577939738298      26.066702897993242      14.287419999999999
   211   1      1.3629531286488865      28.077164845596609      22.492730000000002
   212   1      1.3629531286488865      28.077164845596609      18.390070000000001
   213   1      1.3629531286488865      28.077164845596609      14.287419999999999
   214   1      40.571769116221752       43.30048913328919      3.0874199999999998
   215   1      38.561132253390944      46.747295183856281      11.292730000000001
   216   1      38.561132253390944      46.747295183856281      7.1900700000000004
   217   1      38.561132253390944      46.747295183856281      3.0874199999999998
   218   1      8.2567624592987716      24.056240950389871      22.492730000000002
   219   1      8.2567624592987716      24.056240950389871      18.390070000000001
   220   1      8.2567624592987716      24.056240950389871      14.287419999999999
   221   1      4.8098577939738298      26.066702897993242      22.492730000000002
   222   1      4.8098577939738298      26.066702897993242      18.390070000000001
   223   1      11.703667124623717      22.045779002786499      22.492730000000002
   224   1      11.703667124623717      22.045779002786499      18.390070000000001
   225   1      44.736289775361094      7.3985139028133373      22.492730000000002
   226   1      44.736289775361094      7.3985139028133373      18.390070000000001
   227   1      44.736289775361094      7.3985139028133373      14.287419999999999
   228   1      42.582405979052552        39.8536830827221      11.292730000000001
   229   1      42.582405979052552        39.8536830827221      7.1900700000000004
   230   1      42.582405979052552        39.8536830827221      3.0874199999999998
   231   1      40.571769116221752       43.30048913328919      11.292730000000001
   232   1      40.571769116221752       43.30048913328919      7.1900700000000004
   233   1      51.630099106010981      3.3775900076065963      14.287419999999999
   234   1      48.183194440686037      5.3880519552099653      22.492730000000002
   235   1      48.183194440686037      5.3880519552099653      18.390070000000001
   236   1      48.183194440686037      5.3880519552099653      14.287419999999999
   237   1      55.077008810046188      1.3671194222142158      22.492730000000002
   238   1      55.077008810046188      1.3671194222142158      18.390070000000001
   239   1      55.077008810046188      1.3671194222142158      14.287419999999999
   240   1      51.630099106010981      3.3775900076065963      22.492730000000002
   241   1      24.054856744701183      19.461294226222574      18.390070000000001
   242   1      30.948666075351067      15.440370331015833      22.492730000000002
   243   1      30.948666075351067      15.440370331015833      18.390070000000001
   244   1      30.948666075351067      15.440370331015833      14.287419999999999
   245   1      44.593042841883353      36.406877032155009      11.292730000000001
   246   1      44.593042841883353      36.406877032155009      7.1900700000000004
   247   1      44.593042841883353      36.406877032155009      3.0874199999999998
   248   1      37.842480444711207      11.419437798020079      14.287419999999999
   249   1      34.395570740676014      13.429908383412462      22.492730000000002
   250   1      34.395570740676014      13.429908383412462      18.390070000000001
   251   1      34.395570740676014      13.429908383412462      14.287419999999999
   252   1      41.289385110036157      9.4089758504167094      22.492730000000002
   253   1      41.289385110036157      9.4089758504167094      18.390070000000001
   254   1      41.289385110036157      9.4089758504167094      14.287419999999999
   255   1      37.842480444711207      11.419437798020079      22.492730000000002
   256   1      37.842480444711207      11.419437798020079      18.390070000000001
   257   1      10.267224406902145      27.503145615714811      18.390070000000001
   258   1       17.16104237534104      23.482226759218324      22.492730000000002
   259   1       17.16104237534104      23.482226759218324      18.390070000000001
   260   1       17.16104237534104      23.482226759218324      14.287419999999999
   261   1      48.614316567544961      29.513264931020828      3.0874199999999998
   262   1       46.60367970471416      32.960070981587918      11.292730000000001
   263   1       46.60367970471416      32.960070981587918      7.1900700000000004
   264   1       46.60367970471416      32.960070981587918      3.0874199999999998
   265   1      24.054856744701183      19.461294226222574      14.287419999999999
   266   1      20.607952079376236      21.471756173825948      22.492730000000002
   267   1      20.607952079376236      21.471756173825948      18.390070000000001
   268   1      20.607952079376236      21.471756173825948      14.287419999999999
   269   1       27.50176141002612      17.450832278619202      22.492730000000002
   270   1       27.50176141002612      17.450832278619202      18.390070000000001
   271   1       27.50176141002612      17.450832278619202      14.287419999999999
   272   1      24.054856744701183      19.461294226222574      22.492730000000002
   273   1      3.3734100375420022      31.524078148710561      22.492730000000002
   274   1      3.3734100375420022      31.524078148710561      18.390070000000001
   275   1      3.3734100375420022      31.524078148710561      14.287419999999999
   276   1      50.624948391665512      26.066467518242746      11.292730000000001
   277   1      50.624948391665512      26.066467518242746      7.1900700000000004
   278   1      50.624948391665512      26.066467518242746      3.0874199999999998
   279   1      48.614316567544961      29.513264931020828      11.292730000000001
   280   1      48.614316567544961      29.513264931020828      7.1900700000000004
   281   1      10.267224406902145      27.503145615714811      14.287419999999999
   282   1      6.8203197415771983      29.513607563318185      22.492730000000002
   283   1      6.8203197415771983      29.513607563318185      18.390070000000001
   284   1      6.8203197415771983      29.513607563318185      14.287419999999999
   285   1      13.714129072227086      25.492683668111443      22.492730000000002
   286   1      13.714129072227086      25.492683668111443      18.390070000000001
   287   1      13.714129072227086      25.492683668111443      14.287419999999999
   288   1      10.267224406902145      27.503145615714811      22.492730000000002
   289   1      39.852937353604325      14.866351101134034      14.287419999999999
   290   1      46.746751722964461      10.845418568138282      14.287419999999999
   291   1      43.299847057639525      12.855880515741651      22.492730000000002
   292   1      43.299847057639525      12.855880515741651      18.390070000000001
   293   1      43.299847057639525      12.855880515741651      14.287419999999999
   294   1      52.635585254496313      22.619661467675655      11.292730000000001
   295   1      52.635585254496313      22.619661467675655      7.1900700000000004
   296   1      52.635585254496313      22.619661467675655      3.0874199999999998
   297   1      50.193656388289405      8.8349566205349053      22.492730000000002
   298   1      50.193656388289405      8.8349566205349053      18.390070000000001
   299   1      50.193656388289405      8.8349566205349053      14.287419999999999
   300   1      46.746751722964461      10.845418568138282      22.492730000000002
   301   1      46.746751722964461      10.845418568138282      18.390070000000001
   302   1      53.640561053614356      6.8244946729315377      22.492730000000002
   303   1      53.640561053614356      6.8244946729315377      18.390070000000001
   304   1      53.640561053614356      6.8244946729315377      14.287419999999999
   305   1      29.512223357629495      20.897736943944146      22.492730000000002
   306   1      29.512223357629495      20.897736943944146      18.390070000000001
   307   1      29.512223357629495      20.897736943944146      14.287419999999999
   308   1      29.082415614331445      55.077076472726752      11.292730000000001
   309   1      29.082415614331445      55.077076472726752      7.1900700000000004
   310   1      29.082415614331445      55.077076472726752      3.0874199999999998
   311   1      54.646222117327113      19.172855417108565      11.292730000000001
   312   1      54.646222117327113      19.172855417108565      7.1900700000000004
   313   1      54.646222117327113      19.172855417108565      3.0874199999999998
   314   1      36.406032688279375      16.876813048737404      22.492730000000002
   315   1      36.406032688279375      16.876813048737404      18.390070000000001
   316   1      36.406032688279375      16.876813048737404      14.287419999999999
   317   1      32.959128022954445      18.887274996340778      22.492730000000002
   318   1      32.959128022954445      18.887274996340778      18.390070000000001
   319   1      39.852937353604325      14.866351101134034      22.492730000000002
   320   1      39.852937353604325      14.866351101134034      18.390070000000001
   321   1      15.724599657619466      28.939593372146639      14.287419999999999
   322   1      33.103689339993053      48.183464371592571      11.292730000000001
   323   1      33.103689339993053      48.183464371592571      7.1900700000000004
   324   1      33.103689339993053      48.183464371592571      3.0874199999999998
   325   1      31.093052477162249      51.630270422159661      11.292730000000001
   326   1      31.093052477162249      51.630270422159661      7.1900700000000004
   327   1      31.093052477162249      51.630270422159661      3.0874199999999998
   328   1      22.618408988269355      24.918669476939897      22.492730000000002
   329   1      22.618408988269355      24.918669476939897      18.390070000000001
   330   1      22.618408988269355      24.918669476939897      14.287419999999999
   331   1      19.171504322944408      26.929131424543268      22.492730000000002
   332   1      19.171504322944408      26.929131424543268      18.390070000000001
   333   1      26.065318692304555      22.908198891547517      22.492730000000002
   334   1      26.065318692304555      22.908198891547517      18.390070000000001
   335   1      26.065318692304555      22.908198891547517      14.287419999999999
   336   1      32.959128022954445      18.887274996340778      14.287419999999999
   337   1      1.9369759576094367      36.981449800349132      18.390070000000001
   338   1      1.9369759576094367      36.981449800349132      14.287419999999999
   339   1      8.8307903269695824      32.960517267353381      22.492730000000002
   340   1      8.8307903269695824      32.960517267353381      18.390070000000001
   341   1      8.8307903269695824      32.960517267353381      14.287419999999999
   342   1       5.383880622934381      34.970987852745765      22.492730000000002
   343   1       5.383880622934381      34.970987852745765      18.390070000000001
   344   1      35.114326202823854       44.73665832102548      11.292730000000001
   345   1      35.114326202823854       44.73665832102548      7.1900700000000004
   346   1      35.114326202823854       44.73665832102548      3.0874199999999998
   347   1      12.277694992294524      30.950055319750014      22.492730000000002
   348   1      12.277694992294524      30.950055319750014      18.390070000000001
   349   1      12.277694992294524      30.950055319750014      14.287419999999999
   350   1      19.171504322944408      26.929131424543268      14.287419999999999
   351   1      15.724599657619466      28.939593372146639      22.492730000000002
   352   1      15.724599657619466      28.939593372146639      18.390070000000001
   353   1      38.416494635882749      20.323717714062347      18.390070000000001
   354   1      38.416494635882749      20.323717714062347      14.287419999999999
   355   1      45.310309005242893      16.302785181066596      22.492730000000002
   356   1      45.310309005242893      16.302785181066596      18.390070000000001
   357   1      45.310309005242893      16.302785181066596      14.287419999999999