(written by ASE)

3576 atoms
3 atom types

0.0      48.708784352199288  xlo xhi
0.0      48.708784352199288  ylo yhi
0.0                      50  zlo zhi

Masses

     1       137.3269999646734 # Ba
     2      15.998999995884349 # O
     3      47.866999987686484 # Ti

Atoms # atomic

     1   1      47.973250475769191        44.5407481942907      11.292730000000001
     2   1      47.973250475769191        44.5407481942907      7.1900700000000004
     3   1      47.973250475769191        44.5407481942907      3.0874199999999998
     4   1      45.684917806068654      47.809794865291465      11.292730000000001
     5   1      25.904949762602904      31.793296341498142      14.287419999999999
     6   1      30.974210244260956      13.157914079625973      11.292730000000001
     7   1      30.974210244260956      13.157914079625973      7.1900700000000004
     8   1      30.974210244260956      13.157914079625973      3.0874199999999998
     9   1      28.685877574560418      16.426960750626741      11.292730000000001
    10   1      28.685877574560418      16.426960750626741      7.1900700000000004
    11   1      28.685877574560418      16.426960750626741      3.0874199999999998
    12   1      32.443362605053437      27.217099602755599      22.492730000000002
    13   1      32.443362605053437      27.217099602755599      18.390070000000001
    14   1      32.443362605053437      27.217099602755599      14.287419999999999
    15   1      29.174156183828181      29.505197972126876      22.492730000000002
    16   1      29.174156183828181      29.505197972126876      18.390070000000001
    17   1      4.1680332766780994      23.618855234509223      11.292730000000001
    18   1      4.1680332766780994      23.618855234509223      7.1900700000000004
    19   1      13.321363955480249      10.542668550506152      3.0874199999999998
    20   1      11.033031285779712      13.811715221506919      11.292730000000001
    21   1      11.033031285779712      13.811715221506919      7.1900700000000004
    22   1      11.033031285779712      13.811715221506919      3.0874199999999998
    23   1      4.1680332766780994      23.618855234509223      3.0874199999999998
    24   1      36.858491794366579      46.502176196891163      11.292730000000001
    25   1      36.858491794366579      46.502176196891163      7.1900700000000004
    26   1      36.858491794366579      46.502176196891163      3.0874199999999998
    27   1      5.3120341266804232      2.3704295389195917      22.492730000000002
    28   1      5.3120341266804232      2.3704295389195917      18.390070000000001
    29   1      5.3120341266804232      2.3704295389195917      14.287419999999999
    30   1      8.5812405479056917    0.082331169548322078      22.492730000000002
    31   1      45.684917806068654      47.809794865291465      7.1900700000000004
    32   1      44.704203804768419      42.252415524590155      3.0874199999999998
    33   1       43.72348980346819       36.69503618388886      3.0874199999999998
    34   1      41.435157133767653      39.964082854889625      11.292730000000001
    35   1      10.869338917276961      3.3515375907735909      22.492730000000002
    36   1      10.869338917276961      3.3515375907735909      18.390070000000001
    37   1      10.869338917276961      3.3515375907735909      14.287419999999999
    38   1      7.6001324960516925      5.6396359601448616      22.492730000000002
    39   1      7.6001324960516925      5.6396359601448616      18.390070000000001
    40   1      7.6001324960516925      5.6396359601448616      14.287419999999999
    41   1      41.435157133767653      39.964082854889625      7.1900700000000004
    42   1      41.435157133767653      39.964082854889625      3.0874199999999998
    43   1       1.879700606977561      26.887901905509995      11.292730000000001
    44   1       1.879700606977561      26.887901905509995      7.1900700000000004
    45   1       1.879700606977561      26.887901905509995      3.0874199999999998
    46   1      15.609690890557344      7.2736300718245879      11.292730000000001
    47   1      15.609690890557344      7.2736300718245879      7.1900700000000004
    48   1      15.609690890557344      7.2736300718245879      3.0874199999999998
    49   1       20.18635622995842     0.73553672982305196      11.292730000000001
    50   1       20.18635622995842     0.73553672982305196      7.1900700000000004
    51   1       20.18635622995842     0.73553672982305196      3.0874199999999998
    52   1     0.89898660567733246      21.330522564808689      11.292730000000001
    53   1     0.89898660567733246      21.330522564808689      7.1900700000000004
    54   1     0.89898660567733246      21.330522564808689      3.0874199999999998
    55   1      1.0617221112969148      10.215846625830048      18.390070000000001
    56   1      1.0617221112969148      10.215846625830048      14.287419999999999
    57   1      46.011822473168728      33.425989512888087      11.292730000000001
    58   1      46.011822473168728      33.425989512888087      7.1900700000000004
    59   1      46.011822473168728      33.425989512888087      3.0874199999999998
    60   1      4.3309203402029794      7.9277425218353361      22.492730000000002
    61   1      4.3309203402029794      7.9277425218353361      18.390070000000001
    62   1      4.3309203402029794      7.9277425218353361      14.287419999999999
    63   1       43.72348980346819       36.69503618388886      11.292730000000001
    64   1       43.72348980346819       36.69503618388886      7.1900700000000004
    65   1      48.300149408245822      30.156951034206525      7.1900700000000004
    66   1      48.300149408245822      30.156951034206525      3.0874199999999998
    67   1      19.695855863722212       2.044539080937116      22.492730000000002
    68   1      19.695855863722212       2.044539080937116      18.390070000000001
    69   1      19.695855863722212       2.044539080937116      14.287419999999999
    70   1      1.0617221112969148      10.215846625830048      22.492730000000002
    71   1      23.455402900959189       3.023869399523591      11.292730000000001
    72   1      23.455402900959189       3.023869399523591      7.1900700000000004
    73   1      23.455402900959189       3.023869399523591      3.0874199999999998
    74   1      5.4756519450784067      14.792429222807153      11.292730000000001
    75   1      5.4756519450784067      14.792429222807153      7.1900700000000004
    76   1      5.4756519450784067      14.792429222807153      3.0874199999999998
    77   1       3.187319275377869       18.06147589380792      11.292730000000001
    78   1       3.187319275377869       18.06147589380792      7.1900700000000004
    79   1       3.187319275377869       18.06147589380792      3.0874199999999998
    80   1      17.898023560257883      4.0045834008238206      3.0874199999999998
    81   1      7.7639846147789449      11.523382551806383      11.292730000000001
    82   1      7.7639846147789449      11.523382551806383      7.1900700000000004
    83   1      7.7639846147789449      11.523382551806383      3.0874199999999998
    84   1       35.87777779306635      40.944796856189853      11.292730000000001
    85   1       35.87777779306635      40.944796856189853      7.1900700000000004
    86   1       35.87777779306635      40.944796856189853      3.0874199999999998
    87   1      16.426643707873499      4.3326456426275914      22.492730000000002
    88   1      16.426643707873499      4.3326456426275914      18.390070000000001
    89   1      16.426643707873499      4.3326456426275914      14.287419999999999
    90   1      33.589445123365813      44.213843527190619      11.292730000000001
    91   1      33.589445123365813      44.213843527190619      7.1900700000000004
    92   1      33.589445123365813      44.213843527190619      3.0874199999999998
    93   1      31.301112453665272      47.482890198191392      11.292730000000001
    94   1      31.301112453665272      47.482890198191392      7.1900700000000004
    95   1      31.301112453665272      47.482890198191392      3.0874199999999998
    96   1      48.300149408245822      30.156951034206525      11.292730000000001
    97   1      14.628976889257114       1.716250731123284      3.0874199999999998
    98   1      12.340644219556577      4.9852974021240515      11.292730000000001
    99   1      6.6190326365168977      11.196946485364844      22.492730000000002
   100   1      6.6190326365168977      11.196946485364844      18.390070000000001
   101   1      6.6190326365168977      11.196946485364844      14.287419999999999
   102   1      38.166110462766888      37.675750185189088      11.292730000000001
   103   1      38.166110462766888      37.675750185189088      7.1900700000000004
   104   1      38.166110462766888      37.675750185189088      3.0874199999999998
   105   1      13.157445478967437      6.6207497466223044      22.492730000000002
   106   1      13.157445478967437      6.6207497466223044      18.390070000000001
   107   1      13.157445478967437      6.6207497466223044      14.287419999999999
   108   1      21.167070231258652      6.2929160705243596      11.292730000000001
   109   1      21.167070231258652      6.2929160705243596      7.1900700000000004
   110   1      21.167070231258652      6.2929160705243596      3.0874199999999998
   111   1      18.878737561558115      9.5619627415251269      11.292730000000001
   112   1      18.878737561558115      9.5619627415251269      7.1900700000000004
   113   1      3.3498204806681842      13.485053047055318      14.287419999999999
   114   1    0.080614059442915109      15.773151416426588      22.492730000000002
   115   1    0.080614059442915109      15.773151416426588      18.390070000000001
   116   1    0.080614059442915109      15.773151416426588      14.287419999999999
   117   1       9.888239057742167      8.9088481159935728      22.492730000000002
   118   1       9.888239057742167      8.9088481159935728      18.390070000000001
   119   1       9.888239057742167      8.9088481159935728      14.287419999999999
   120   1      10.052317284479482      8.2543358808056144      11.292730000000001
   121   1      10.052317284479482      8.2543358808056144      7.1900700000000004
   122   1      10.052317284479482      8.2543358808056144      3.0874199999999998
   123   1      18.878737561558115      9.5619627415251269      3.0874199999999998
   124   1       16.59041062648102      12.831001220206691      11.292730000000001
   125   1       16.59041062648102      12.831001220206691      7.1900700000000004
   126   1       16.59041062648102      12.831001220206691      3.0874199999999998
   127   1      14.628976889257114       1.716250731123284      11.292730000000001
   128   1      14.628976889257114       1.716250731123284      7.1900700000000004
   129   1      2.2066052740776385      12.504096553106615      11.292730000000001
   130   1      2.2066052740776385      12.504096553106615      7.1900700000000004
   131   1      2.2066052740776385      12.504096553106615      3.0874199999999998
   132   1      25.253168846637958      3.0256528674145615      18.390070000000001
   133   1      25.253168846637958      3.0256528674145615      14.287419999999999
   134   1      45.031102737245057      27.868618364505984      11.292730000000001
   135   1      45.031102737245057      27.868618364505984      7.1900700000000004
   136   1      45.031102737245057      27.868618364505984      3.0874199999999998
   137   1      42.742775802167962      31.137656843187546      11.292730000000001
   138   1      42.742775802167962      31.137656843187546      7.1900700000000004
   139   1      42.742775802167962      31.137656843187546      3.0874199999999998
   140   1      40.454443132467425      34.406703514188315      11.292730000000001
   141   1      40.454443132467425      34.406703514188315      7.1900700000000004
   142   1      40.454443132467425      34.406703514188315      3.0874199999999998
   143   1      3.3498204806681842      13.485053047055318      22.492730000000002
   144   1      3.3498204806681842      13.485053047055318      18.390070000000001
   145   1      4.4949379437781767      9.2350498821058462      7.1900700000000004
   146   1      21.983962425412692      5.3137512367858299      22.492730000000002
   147   1      21.983962425412692      5.3137512367858299      18.390070000000001
   148   1      21.983962425412692      5.3137512367858299      14.287419999999999
   149   1      47.319435406945594      24.599571693505215      11.292730000000001
   150   1      47.319435406945594      24.599571693505215      7.1900700000000004
   151   1      47.319435406945594      24.599571693505215      3.0874199999999998
   152   1      28.522372810167468     0.73754057110064175      22.492730000000002
   153   1      28.522372810167468     0.73754057110064175      18.390070000000001
   154   1      28.522372810167468     0.73754057110064175      14.287419999999999
   155   1      25.253168846637958      3.0256528674145615      22.492730000000002
   156   1      12.340644219556577      4.9852974021240515      7.1900700000000004
   157   1      12.340644219556577      4.9852974021240515      3.0874199999999998
   158   1      14.302077956780483       16.10004789120746      11.292730000000001
   159   1      14.302077956780483       16.10004789120746      7.1900700000000004
   160   1      14.302077956780483       16.10004789120746      3.0874199999999998
   161   1        28.0320657826645      45.194557528490854      7.1900700000000004
   162   1        28.0320657826645      45.194557528490854      3.0874199999999998
   163   1      25.743733112963966       48.46360419949162      11.292730000000001
   164   1      25.743733112963966       48.46360419949162      7.1900700000000004
   165   1      25.743733112963966       48.46360419949162      3.0874199999999998
   166   1      18.714756004187418      7.6018496061570984      22.492730000000002
   167   1      18.714756004187418      7.6018496061570984      18.390070000000001
   168   1      18.714756004187418      7.6018496061570984      14.287419999999999
   169   1      12.013745287079946      19.369094562208229      11.292730000000001
   170   1      12.013745287079946      19.369094562208229      7.1900700000000004
   171   1      12.013745287079946      19.369094562208229      3.0874199999999998
   172   1      9.7254126173794067      22.638141233208994      11.292730000000001
   173   1      9.7254126173794067      22.638141233208994      7.1900700000000004
   174   1       6.783270613478714       5.966003211105078      7.1900700000000004
   175   1       6.783270613478714       5.966003211105078      3.0874199999999998
   176   1      4.4949379437781767      9.2350498821058462      11.292730000000001
   177   1      9.0715975485558076      2.6969647324235146      7.1900700000000004
   178   1      9.0715975485558076      2.6969647324235146      3.0874199999999998
   179   1       6.783270613478714       5.966003211105078      11.292730000000001
   180   1      32.608731122065578      38.656464186489316      11.292730000000001
   181   1      32.608731122065578      38.656464186489316      7.1900700000000004
   182   1      32.608731122065578      38.656464186489316      3.0874199999999998
   183   1       30.32039845236504      41.925510857490082      11.292730000000001
   184   1       30.32039845236504      41.925510857490082      7.1900700000000004
   185   1      15.445543848338705      9.8899561678475738      22.492730000000002
   186   1      15.445543848338705      9.8899561678475738      18.390070000000001
   187   1      15.445543848338705      9.8899561678475738      14.287419999999999
   188   1      12.176337427113436      12.178054537218843      22.492730000000002
   189   1      12.176337427113436      12.178054537218843      18.390070000000001
   190   1      12.176337427113436      12.178054537218843      14.287419999999999
   191   1       30.32039845236504      41.925510857490082      3.0874199999999998
   192   1        28.0320657826645      45.194557528490854      11.292730000000001
   193   1      1.2258912727774076       6.946717212405308      3.0874199999999998
   194   1       5.637918850039453      16.754259468280587      22.492730000000002
   195   1       5.637918850039453      16.754259468280587      18.390070000000001
   196   1       5.637918850039453      16.754259468280587      14.287419999999999
   197   1      34.897063791766115      35.387417515488551      11.292730000000001
   198   1      34.897063791766115      35.387417515488551      7.1900700000000004
   199   1      34.897063791766115      35.387417515488551      3.0874199999999998
   200   1      8.9071310058881679      14.466152906590112      22.492730000000002
   201   1      8.9071310058881679      14.466152906590112      18.390070000000001
   202   1      8.9071310058881679      14.466152906590112      14.287419999999999
   203   1      4.4949379437781767      9.2350498821058462      3.0874199999999998
   204   1      9.7254126173794067      22.638141233208994      3.0874199999999998
   205   1      7.4370799476788703      25.907187904209763      11.292730000000001
   206   1      7.4370799476788703      25.907187904209763      7.1900700000000004
   207   1      7.4370799476788703      25.907187904209763      3.0874199999999998
   208   1      9.0715975485558076      2.6969647324235146      11.292730000000001
   209   1      34.079685793083208      1.7186543575780868      14.287419999999999
   210   1       39.47372913116719      28.849324173487009      3.0874199999999998
   211   1      37.185396461466652      32.118370844487778      11.292730000000001
   212   1      37.185396461466652      32.118370844487778      7.1900700000000004
   213   1      37.185396461466652      32.118370844487778      3.0874199999999998
   214   1       2.368712428814185      19.042357837651856      22.492730000000002
   215   1       2.368712428814185      19.042357837651856      18.390070000000001
   216   1       2.368712428814185      19.042357837651856      14.287419999999999
   217   1      5.1487472779783321      29.176234575210533      11.292730000000001
   218   1      5.1487472779783321      29.176234575210533      7.1900700000000004
   219   1      5.1487472779783321      29.176234575210533      3.0874199999999998
   220   1      3.5142239424779453      3.6776705414045399      11.292730000000001
   221   1      3.5142239424779453      3.6776705414045399      7.1900700000000004
   222   1      3.5142239424779453      3.6776705414045399      3.0874199999999998
   223   1      1.2258912727774076       6.946717212405308      11.292730000000001
   224   1      1.2258912727774076       6.946717212405308      7.1900700000000004
   225   1     0.57208193857725664      35.714327917212067      11.292730000000001
   226   1     0.57208193857725664      35.714327917212067      7.1900700000000004
   227   1     0.57208193857725664      35.714327917212067      3.0874199999999998
   228   1      5.8025508775550394     0.40863206272297642      11.292730000000001
   229   1      5.8025508775550394     0.40863206272297642      7.1900700000000004
   230   1      5.8025508775550394     0.40863206272297642      3.0874199999999998
   231   1      41.762056066244284      25.580285694805447      7.1900700000000004
   232   1      41.762056066244284      25.580285694805447      3.0874199999999998
   233   1       39.47372913116719      28.849324173487009      11.292730000000001
   234   1       39.47372913116719      28.849324173487009      7.1900700000000004
   235   1      30.810479371857937      4.0067527269493572      22.492730000000002
   236   1      30.810479371857937      4.0067527269493572      18.390070000000001
   237   1      30.810479371857937      4.0067527269493572      14.287419999999999
   238   1      27.541267216009228        6.29485928863983      22.492730000000002
   239   1      34.079685793083208      1.7186543575780868      22.492730000000002
   240   1      34.079685793083208      1.7186543575780868      18.390070000000001
   241   1      46.171974940542917      46.832341407034903      22.492730000000002
   242   1      46.171974940542917      46.832341407034903      18.390070000000001
   243   1      46.171974940542917      46.832341407034903      14.287419999999999
   244   1      21.002854373558687      10.871056027382368      14.287419999999999
   245   1      44.050388735944821      22.311239023804678      11.292730000000001
   246   1      44.050388735944821      22.311239023804678      7.1900700000000004
   247   1      44.050388735944821      22.311239023804678      3.0874199999999998
   248   1      27.541267216009228        6.29485928863983      18.390070000000001
   249   1      27.541267216009228        6.29485928863983      14.287419999999999
   250   1      24.272060794783958      8.5829576580111002      22.492730000000002
   251   1      24.272060794783958      8.5829576580111002      18.390070000000001
   252   1      24.272060794783958      8.5829576580111002      14.287419999999999
   253   1      41.762056066244284      25.580285694805447      11.292730000000001
   254   1      2.8604146082777953      32.445281246211302      11.292730000000001
   255   1      2.8604146082777953      32.445281246211302      7.1900700000000004
   256   1      2.8604146082777953      32.445281246211302      3.0874199999999998
   257   1      46.338721405645359      19.042192352803912      11.292730000000001
   258   1      46.338721405645359      19.042192352803912      7.1900700000000004
   259   1      46.338721405645359      19.042192352803912      3.0874199999999998
   260   1      17.733642217709974      13.159162589072844      22.492730000000002
   261   1      17.733642217709974      13.159162589072844      18.390070000000001
   262   1      17.733642217709974      13.159162589072844      14.287419999999999
   263   1      14.464435796484707      15.447260958444112      22.492730000000002
   264   1      21.002854373558687      10.871056027382368      22.492730000000002
   265   1      21.002854373558687      10.871056027382368      18.390070000000001
   266   1     0.24517727147717686      1.3893378717040021      11.292730000000001
   267   1     0.24517727147717686      1.3893378717040021      7.1900700000000004
   268   1     0.24517727147717686      1.3893378717040021      3.0874199999999998
   269   1      29.012782241660492      2.0431553982233601      11.292730000000001
   270   1      37.345449801778457      48.139334182247936      22.492730000000002
   271   1      37.345449801778457      48.139334182247936      18.390070000000001
   272   1      37.345449801778457      48.139334182247936      14.287419999999999
   273   1      14.464435796484707      15.447260958444112      18.390070000000001
   274   1      14.464435796484707      15.447260958444112      14.287419999999999
   275   1      11.195229375259437      17.735359327815381      22.492730000000002
   276   1      11.195229375259437      17.735359327815381      18.390070000000001
   277   1      11.195229375259437      17.735359327815381      14.287419999999999
   278   1      48.627054075345896      15.773145681803143      3.0874199999999998
   279   1      29.012782241660492      2.0431553982233601      7.1900700000000004
   280   1      29.012782241660492      2.0431553982233601      3.0874199999999998
   281   1      26.724449571959955      5.3122020692241279      11.292730000000001
   282   1      26.724449571959955      5.3122020692241279      7.1900700000000004
   283   1      26.724449571959955      5.3122020692241279      3.0874199999999998
   284   1      43.883868378852441       43.56312925118619      22.492730000000002
   285   1      43.883868378852441       43.56312925118619      18.390070000000001
   286   1      43.883868378852441       43.56312925118619      14.287419999999999
   287   1      40.614661957627177      45.851227620557459      22.492730000000002
   288   1      40.614661957627177      45.851227620557459      18.390070000000001
   289   1      1.3876125692793908      24.599668362871839      18.390070000000001
   290   1      1.3876125692793908      24.599668362871839      14.287419999999999
   291   1      27.051351781364275      39.637178187789544      11.292730000000001
   292   1      27.051351781364275      39.637178187789544      7.1900700000000004
   293   1      27.051351781364275      39.637178187789544      3.0874199999999998
   294   1      7.9260254117299294        20.0234716241293      22.492730000000002
   295   1      7.9260254117299294        20.0234716241293      18.390070000000001
   296   1      7.9260254117299294        20.0234716241293      14.287419999999999
   297   1      24.763019111663734       42.90622485879031      11.292730000000001
   298   1      24.763019111663734       42.90622485879031      7.1900700000000004
   299   1      24.763019111663734       42.90622485879031      3.0874199999999998
   300   1        22.4746864419632      46.175271529791075      11.292730000000001
   301   1        22.4746864419632      46.175271529791075      7.1900700000000004
   302   1        22.4746864419632      46.175271529791075      3.0874199999999998
   303   1      48.627054075345896      15.773145681803143      11.292730000000001
   304   1      48.627054075345896      15.773145681803143      7.1900700000000004
   305   1      29.339684451064812      36.368131516788772      11.292730000000001
   306   1      29.339684451064812      36.368131516788772      7.1900700000000004
   307   1      29.339684451064812      36.368131516788772      3.0874199999999998
   308   1      4.6568189905046609      22.311569993500569      22.492730000000002
   309   1      4.6568189905046609      22.311569993500569      18.390070000000001
   310   1      4.6568189905046609      22.311569993500569      14.287419999999999
   311   1      40.614661957627177      45.851227620557459      14.287419999999999
   312   1      24.436116902259418      8.5812487402248969      11.292730000000001
   313   1      24.436116902259418      8.5812487402248969      7.1900700000000004
   314   1      24.436116902259418      8.5812487402248969      3.0874199999999998
   315   1      47.153074800077711      41.275030881814921      22.492730000000002
   316   1      47.153074800077711      41.275030881814921      18.390070000000001
   317   1      47.153074800077711      41.275030881814921      14.287419999999999
   318   1       22.14778423255888      11.850295411225664      11.292730000000001
   319   1       22.14778423255888      11.850295411225664      7.1900700000000004
   320   1      1.3876125692793908      24.599668362871839      22.492730000000002
   321   1      31.788145011181918      47.158226130393928      18.390070000000001
   322   1      31.788145011181918      47.158226130393928      14.287419999999999
   323   1      38.326557853632458      42.582029391651396      22.492730000000002
   324   1      38.326557853632458      42.582029391651396      18.390070000000001
   325   1      33.916349790465887      29.830038174787237      11.292730000000001
   326   1      33.916349790465887      29.830038174787237      7.1900700000000004
   327   1      33.916349790465887      29.830038174787237      3.0874199999999998
   328   1       31.62801712076535      33.099084845788006      11.292730000000001
   329   1       31.62801712076535      33.099084845788006      7.1900700000000004
   330   1       42.90620273952846     0.41165584774161257      14.287419999999999
   331   1      39.636990583679747       2.699762409432084      22.492730000000002
   332   1      39.636990583679747       2.699762409432084      18.390070000000001
   333   1      39.636990583679747       2.699762409432084      14.287419999999999
   334   1       42.90620273952846     0.41165584774161257      22.492730000000002
   335   1       42.90620273952846     0.41165584774161257      18.390070000000001
   336   1       31.62801712076535      33.099084845788006      3.0874199999999998
   337   1      41.595770009481171      40.293922829960913      18.390070000000001
   338   1      41.595770009481171      40.293922829960913      14.287419999999999
   339   1      29.829365585380497      9.5640657098650994      22.492730000000002
   340   1      29.829365585380497      9.5640657098650994      18.390070000000001
   341   1      36.204682460166424      26.560991503786468      11.292730000000001
   342   1      36.204682460166424      26.560991503786468      7.1900700000000004
   343   1      36.204682460166424      26.560991503786468      3.0874199999999998
   344   1      36.367784162454484      4.9878607788033573      22.492730000000002
   345   1      36.367784162454484      4.9878607788033573      18.390070000000001
   346   1      36.367784162454484      4.9878607788033573      14.287419999999999
   347   1       22.14778423255888      11.850295411225664      3.0874199999999998
   348   1      19.859457297481786      15.119333889907228      11.292730000000001
   349   1      35.057351432407195      44.870127761022658      22.492730000000002
   350   1      35.057351432407195      44.870127761022658      18.390070000000001
   351   1      35.057351432407195      44.870127761022658      14.287419999999999
   352   1      31.788145011181918      47.158226130393928      22.492730000000002
   353   1      26.560159164155227      11.852164079236369      22.492730000000002
   354   1      26.560159164155227      11.852164079236369      18.390070000000001
   355   1      26.560159164155227      11.852164079236369      14.287419999999999
   356   1      33.098577741229214       7.275959148174624      22.492730000000002
   357   1      33.098577741229214       7.275959148174624      18.390070000000001