(written by ASE)

7800 atoms
3 atom types

0.0      71.937582179613216  xlo xhi
0.0      71.937582179613216  ylo yhi
0.0                      50  zlo zhi

Masses

     1       137.3269999646734 # Ba
     2      15.998999995884349 # O
     3      47.866999987686484 # Ti

Atoms # atomic

     1   1      34.253360045228263      48.862215106711652      3.0874199999999998
     2   1      34.474705947429385      44.877988867091375      11.292730000000001
     3   1      34.474705947429385      44.877988867091375      7.1900700000000004
     4   1      34.474705947429385      44.877988867091375      3.0874199999999998
     5   1       34.03201358832694      52.846451330935466      11.292730000000001
     6   1       34.03201358832694      52.846451330935466      7.1900700000000004
     7   1       34.03201358832694      52.846451330935466      3.0874199999999998
     8   1      34.696052404330707      40.893752642867554      11.292730000000001
     9   1      34.696052404330707      40.893752642867554      7.1900700000000004
    10   1      34.696052404330707      40.893752642867554      3.0874199999999998
    11   1      33.810667131425618      56.830687555159287      11.292730000000001
    12   1      33.810667131425618      56.830687555159287      7.1900700000000004
    13   1      33.810667131425618      56.830687555159287      3.0874199999999998
    14   1      33.367974217622965      64.799160003606914      11.292730000000001
    15   1      33.367974217622965      64.799160003606914      7.1900700000000004
    16   1      33.367974217622965      64.799160003606914      3.0874199999999998
    17   1     0.49840034510915332      62.917717338746449      22.492730000000002
    18   1      70.332821980840194      46.870106424503085      11.292730000000001
    19   1      70.332821980840194      46.870106424503085      7.1900700000000004
    20   1      70.332821980840194      46.870106424503085      3.0874199999999998
    21   1      70.554168437741509      42.885870200279271      11.292730000000001
    22   1      70.554168437741509      42.885870200279271      7.1900700000000004
    23   1      70.554168437741509      42.885870200279271      3.0874199999999998
    24   1      70.775514894642839       38.90163397605545      11.292730000000001
    25   1      70.775514894642839       38.90163397605545      7.1900700000000004
    26   1      70.775514894642839       38.90163397605545      3.0874199999999998
    27   1       71.66090072224813      22.964689079160202      11.292730000000001
    28   1       71.66090072224813      22.964689079160202      7.1900700000000004
    29   1       71.66090072224813      22.964689079160202      3.0874199999999998
    30   1      71.882247179149445      18.980452854936388      11.292730000000001
    31   1      71.882247179149445      18.980452854936388      7.1900700000000004
    32   1      34.253360045228263      48.862215106711652      7.1900700000000004
    33   1      4.4826343505321828      62.696342037434924      18.390070000000001
    34   1      4.4826343505321828      62.696342037434924      14.287419999999999
    35   1      4.2612690338241874      58.712108586712091      22.492730000000002
    36   1      4.7040096518437089       66.68057604285795      22.492730000000002
    37   1      4.7040096518437089       66.68057604285795      18.390070000000001
    38   1      4.7040096518437089       66.68057604285795      14.287419999999999
    39   1      69.447436707935097      62.807041336794803      11.292730000000001
    40   1      69.447436707935097      62.807041336794803      7.1900700000000004
    41   1      69.447436707935097      62.807041336794803      3.0874199999999998
    42   1      4.9253749685517034      70.664809493580776      22.492730000000002
    43   1      4.9253749685517034      70.664809493580776      18.390070000000001
    44   1      4.9253749685517034      70.664809493580776      14.287419999999999
    45   1    0.055659727089632405      54.949249882600583      22.492730000000002
    46   1    0.055659727089632405      54.949249882600583      18.390070000000001
    47   1    0.055659727089632405      54.949249882600583      14.287419999999999
    48   1      69.668783164836412      58.822805112570997      11.292730000000001
    49   1      3.5971531144931399      46.759407125143198      22.492730000000002
    50   1      3.5971531144931399      46.759407125143198      18.390070000000001
    51   1      3.5971531144931399      46.759407125143198      14.287419999999999
    52   1      3.3757877977851445      42.775173674420373      22.492730000000002
    53   1       3.818528415804666      50.743641130566225      22.492730000000002
    54   1       3.818528415804666      50.743641130566225      18.390070000000001
    55   1       3.818528415804666      50.743641130566225      14.287419999999999
    56   1      69.226090251033767      66.791277561018617      11.292730000000001
    57   1      69.226090251033767      66.791277561018617      7.1900700000000004
    58   1      69.226090251033767      66.791277561018617      3.0874199999999998
    59   1      4.2612690338241874      58.712108586712091      18.390070000000001
    60   1      4.2612690338241874      58.712108586712091      14.287419999999999
    61   1      4.0398937325126605      54.727874581289058      22.492730000000002
    62   1      4.0398937325126605      54.727874581289058      18.390070000000001
    63   1      4.0398937325126605      54.727874581289058      14.287419999999999
    64   1      4.4826343505321828      62.696342037434924      22.492730000000002
    65   1      2.7116718784540974      30.822472212851476      14.287419999999999
    66   1       2.490306561746102      26.838238762128643      22.492730000000002
    67   1      68.783396227830721      2.8221714857433402      11.292730000000001
    68   1      68.783396227830721      2.8221714857433402      7.1900700000000004
    69   1      68.783396227830721      2.8221714857433402      3.0874199999999998
    70   1      69.004743794132452      70.775513785242424      11.292730000000001
    71   1      69.004743794132452      70.775513785242424      7.1900700000000004
    72   1      69.004743794132452      70.775513785242424      3.0874199999999998
    73   1      2.9330471797656239      34.806706218274506      22.492730000000002
    74   1      2.9330471797656239      34.806706218274506      18.390070000000001
    75   1      2.9330471797656239      34.806706218274506      14.287419999999999
    76   1      3.3757877977851445      42.775173674420373      18.390070000000001
    77   1      3.3757877977851445      42.775173674420373      14.287419999999999
    78   1      3.1544124964736175      38.790939668997339      22.492730000000002
    79   1      3.1544124964736175      38.790939668997339      18.390070000000001
    80   1      3.1544124964736175      38.790939668997339      14.287419999999999
    81   1      1.8262006270185862      14.885537855259948      18.390070000000001
    82   1      1.8262006270185862      14.885537855259948      14.287419999999999
    83   1      1.6048253257070595      10.901303849836919      22.492730000000002
    84   1       2.047565943726581      18.869771305982781      22.492730000000002
    85   1       2.047565943726581      18.869771305982781      18.390070000000001
    86   1       2.047565943726581      18.869771305982781      14.287419999999999
    87   1      68.562050325629599      6.8063977253636221      11.292730000000001
    88   1      68.562050325629599      6.8063977253636221      7.1900700000000004
    89   1      68.562050325629599      6.8063977253636221      3.0874199999999998
    90   1       2.490306561746102      26.838238762128643      18.390070000000001
    91   1       2.490306561746102      26.838238762128643      14.287419999999999
    92   1      2.2689312604345755      22.854004756705613      22.492730000000002
    93   1      2.2689312604345755      22.854004756705613      18.390070000000001
    94   1      2.2689312604345755      22.854004756705613      14.287419999999999
    95   1      2.7116718784540974      30.822472212851476      22.492730000000002
    96   1      2.7116718784540974      30.822472212851476      18.390070000000001
    97   1      8.9096084192745355      70.443444176872802      22.492730000000002
    98   1      8.9096084192745355      70.443444176872802      18.390070000000001
    99   1      8.9096084192745355      70.443444176872802      14.287419999999999
   100   1      8.6882431025665419      66.459210726149962      22.492730000000002
   101   1       1.162084707687538       2.932836393691058      22.492730000000002
   102   1       1.162084707687538       2.932836393691058      18.390070000000001
   103   1       1.162084707687538       2.932836393691058      14.287419999999999
   104   1      68.340703868728269      10.790633949587436      11.292730000000001
   105   1      68.340703868728269      10.790633949587436      7.1900700000000004
   106   1      68.340703868728269      10.790633949587436      3.0874199999999998
   107   1      1.6048253257070595      10.901303849836919      18.390070000000001
   108   1      1.6048253257070595      10.901303849836919      14.287419999999999
   109   1      1.3834600089990647      6.9170703991140865      22.492730000000002
   110   1      1.3834600089990647      6.9170703991140865      18.390070000000001
   111   1      1.3834600089990647      6.9170703991140865      14.287419999999999
   112   1      1.8262006270185862      14.885537855259948      22.492730000000002
   113   1      8.0241271832354926      54.506509264581069      14.287419999999999
   114   1      7.8027618665274998      50.522275813858236      22.492730000000002
   115   1      67.898010954925624      18.759106398035062      11.292730000000001
   116   1      67.898010954925624      18.759106398035062      7.1900700000000004
   117   1      67.898010954925624      18.759106398035062      3.0874199999999998
   118   1      68.119357411826954       14.77487017381125      11.292730000000001
   119   1      68.119357411826954       14.77487017381125      7.1900700000000004
   120   1      68.119357411826954       14.77487017381125      3.0874199999999998
   121   1      8.2455024845470213      58.490743270004096      22.492730000000002
   122   1      8.2455024845470213      58.490743270004096      18.390070000000001
   123   1      8.2455024845470213      58.490743270004096      14.287419999999999
   124   1      8.6882431025665419      66.459210726149962      18.390070000000001
   125   1      8.6882431025665419      66.459210726149962      14.287419999999999
   126   1      8.4668678012550149      62.474976720726929      22.492730000000002
   127   1      8.4668678012550149      62.474976720726929      18.390070000000001
   128   1      8.4668678012550149      62.474976720726929      14.287419999999999
   129   1      7.1386465018966474      38.569564367685807      18.390070000000001
   130   1      7.1386465018966474      38.569564367685807      14.287419999999999
   131   1       6.917281185188652      34.585330916962981      22.492730000000002
   132   1      7.3600218032081735       42.55379837310884      22.492730000000002
   133   1      7.3600218032081735       42.55379837310884      18.390070000000001
   134   1      7.3600218032081735       42.55379837310884      14.287419999999999
   135   1      67.676664498024309      22.743342622258876      11.292730000000001
   136   1      67.676664498024309      22.743342622258876      7.1900700000000004
   137   1      67.676664498024309      22.743342622258876      3.0874199999999998
   138   1      7.8027618665274998      50.522275813858236      18.390070000000001
   139   1      7.8027618665274998      50.522275813858236      14.287419999999999
   140   1       7.581386565215972      46.538041808435203      22.492730000000002
   141   1       7.581386565215972      46.538041808435203      18.390070000000001
   142   1       7.581386565215972      46.538041808435203      14.287419999999999
   143   1      8.0241271832354926      54.506509264581069      22.492730000000002
   144   1      8.0241271832354926      54.506509264581069      18.390070000000001
   145   1      6.2531752504611369      22.632630010094285      22.492730000000002
   146   1      6.2531752504611369      22.632630010094285      18.390070000000001
   147   1      6.2531752504611369      22.632630010094285      14.287419999999999
   148   1      6.0317999491496099      18.648396004671255      22.492730000000002
   149   1      6.4745405671691314      26.616863460817118      22.492730000000002
   150   1      6.4745405671691314      26.616863460817118      18.390070000000001
   151   1      6.4745405671691314      26.616863460817118      14.287419999999999
   152   1      67.455318041122979      26.727578846482693      11.292730000000001
   153   1      67.455318041122979      26.727578846482693      7.1900700000000004
   154   1      67.455318041122979      26.727578846482693      3.0874199999999998
   155   1       6.917281185188652      34.585330916962981      18.390070000000001
   156   1       6.917281185188652      34.585330916962981      14.287419999999999
   157   1      6.6959058838771259      30.601096911539948      22.492730000000002
   158   1      6.6959058838771259      30.601096911539948      18.390070000000001
   159   1      6.6959058838771259      30.601096911539948      14.287419999999999
   160   1      7.1386465018966474      38.569564367685807      22.492730000000002
   161   1      5.3676940144220939      6.6956950978025604      14.287419999999999
   162   1       5.146318713110567       2.711461092379531      22.492730000000002
   163   1      67.012625127320334      34.696051294930321      11.292730000000001
   164   1      67.012625127320334      34.696051294930321      7.1900700000000004
   165   1      67.012625127320334      34.696051294930321      3.0874199999999998
   166   1      67.233971584221663      30.711815070706503      11.292730000000001
   167   1      67.233971584221663      30.711815070706503      7.1900700000000004
   168   1      67.233971584221663      30.711815070706503      3.0874199999999998
   169   1      5.5890593311300885      10.679928548525393      22.492730000000002
   170   1      5.5890593311300885      10.679928548525393      18.390070000000001
   171   1      5.5890593311300885      10.679928548525393      14.287419999999999
   172   1      6.0317999491496099      18.648396004671255      18.390070000000001
   173   1      6.0317999491496099      18.648396004671255      14.287419999999999
   174   1      5.8104346324416154      14.664162553948421      22.492730000000002
   175   1      5.8104346324416154      14.664162553948421      18.390070000000001
   176   1      5.8104346324416154      14.664162553948421      14.287419999999999
   177   1      12.451101806678045      62.253601419415403      18.390070000000001
   178   1      12.451101806678045      62.253601419415403      14.287419999999999
   179   1      12.229736489970049      58.269367968692571      22.492730000000002
   180   1      12.672477107989568      66.237835424838437      22.492730000000002
   181   1      12.672477107989568      66.237835424838437      18.390070000000001
   182   1      12.672477107989568      66.237835424838437      14.287419999999999
   183   1      66.791278670419018      38.680287519154128      11.292730000000001
   184   1      66.791278670419018      38.680287519154128      7.1900700000000004
   185   1      66.791278670419018      38.680287519154128      3.0874199999999998
   186   1       5.146318713110567       2.711461092379531      18.390070000000001
   187   1       5.146318713110567       2.711461092379531      14.287419999999999
   188   1      12.893842424697567      70.222068875561263      22.492730000000002
   189   1      12.893842424697567      70.222068875561263      18.390070000000001
   190   1      12.893842424697567      70.222068875561263      14.287419999999999
   191   1      5.3676940144220939      6.6956950978025604      22.492730000000002
   192   1      5.3676940144220939      6.6956950978025604      18.390070000000001
   193   1      11.565620570639002      46.316666507123678      22.492730000000002
   194   1      11.565620570639002      46.316666507123678      18.390070000000001
   195   1      11.565620570639002      46.316666507123678      14.287419999999999
   196   1      11.344255253931006      42.332433056400845      22.492730000000002
   197   1      11.786995871950527      50.300900512546704      22.492730000000002
   198   1      11.786995871950527      50.300900512546704      18.390070000000001
   199   1      11.786995871950527      50.300900512546704      14.287419999999999
   200   1      66.569932213517689      42.664523743377949      11.292730000000001
   201   1      66.569932213517689      42.664523743377949      7.1900700000000004
   202   1      66.569932213517689      42.664523743377949      3.0874199999999998
   203   1      12.229736489970049      58.269367968692571      18.390070000000001
   204   1      12.229736489970049      58.269367968692571      14.287419999999999
   205   1      12.008361188658524      54.285133963269537      22.492730000000002
   206   1      12.008361188658524      54.285133963269537      18.390070000000001
   207   1      12.008361188658524      54.285133963269537      14.287419999999999
   208   1      12.451101806678045      62.253601419415403      22.492730000000002
   209   1      10.680139334599959      30.379731594831956      14.287419999999999
   210   1      10.458774017891963      26.395498144109119      22.492730000000002
   211   1      66.127239854415237      50.632986207222039      11.292730000000001
   212   1      66.127239854415237      50.632986207222039      7.1900700000000004
   213   1      66.127239854415237      50.632986207222039      3.0874199999999998
   214   1      66.348585756616373      46.648759967601762      11.292730000000001
   215   1      66.348585756616373      46.648759967601762      7.1900700000000004
   216   1      66.348585756616373      46.648759967601762      3.0874199999999998
   217   1      10.901514635911486      34.363965600254986      22.492730000000002
   218   1      10.901514635911486      34.363965600254986      18.390070000000001
   219   1      10.901514635911486      34.363965600254986      14.287419999999999
   220   1      11.344255253931006      42.332433056400845      18.390070000000001
   221   1      11.344255253931006      42.332433056400845      14.287419999999999
   222   1      11.122879952619479      38.348199050977819      22.492730000000002
   223   1      11.122879952619479      38.348199050977819      18.390070000000001
   224   1      11.122879952619479      38.348199050977819      14.287419999999999
   225   1      9.7946680831644493      14.442797237240427      18.390070000000001
   226   1      9.7946680831644493      14.442797237240427      14.287419999999999
   227   1      9.5732927818529223      10.458563231817397      22.492730000000002
   228   1      10.016033399872443       18.42703068796326      22.492730000000002
   229   1      10.016033399872443       18.42703068796326      18.390070000000001
   230   1      10.016033399872443       18.42703068796326      14.287419999999999
   231   1      65.905893397513921       54.61722243144586      11.292730000000001
   232   1      65.905893397513921       54.61722243144586      7.1900700000000004
   233   1      65.905893397513921       54.61722243144586      3.0874199999999998
   234   1      10.458774017891963      26.395498144109119      18.390070000000001
   235   1      10.458774017891963      26.395498144109119      14.287419999999999
   236   1       10.23740870118397       22.41126469338629      22.492730000000002
   237   1       10.23740870118397       22.41126469338629      18.390070000000001
   238   1       10.23740870118397       22.41126469338629      14.287419999999999
   239   1      10.680139334599959      30.379731594831956      22.492730000000002
   240   1      10.680139334599959      30.379731594831956      18.390070000000001
   241   1      16.656710558712405      66.016470108130434      14.287419999999999
   242   1      16.878075875420397       70.00070355885326      22.492730000000002
   243   1      16.878075875420397       70.00070355885326      18.390070000000001
   244   1      16.878075875420397       70.00070355885326      14.287419999999999
   245   1         9.1305521638334      2.4900957756715365      22.492730000000002
   246   1         9.1305521638334      2.4900957756715365      18.390070000000001
   247   1         9.1305521638334      2.4900957756715365      14.287419999999999
   248   1      65.684546940612591      58.601458655669674      11.292730000000001
   249   1      65.684546940612591      58.601458655669674      7.1900700000000004
   250   1      65.684546940612591      58.601458655669674      3.0874199999999998
   251   1      9.5732927818529223      10.458563231817397      18.390070000000001
   252   1      9.5732927818529223      10.458563231817397      14.287419999999999
   253   1      9.3519274651449251      6.4743297810945659      22.492730000000002
   254   1      9.3519274651449251      6.4743297810945659      18.390070000000001
   255   1      9.3519274651449251      6.4743297810945659      14.287419999999999
   256   1      9.7946680831644493      14.442797237240427      22.492730000000002
   257   1      15.992594639381354      54.063768646561549      18.390070000000001
   258   1      15.992594639381354      54.063768646561549      14.287419999999999
   259   1      65.241854026809946      66.569931104117302      11.292730000000001
   260   1      65.241854026809946      66.569931104117302      7.1900700000000004
   261   1      65.241854026809946      66.569931104117302      3.0874199999999998
   262   1      65.463200483711276      62.585694879893481      11.292730000000001
   263   1      65.463200483711276      62.585694879893481      7.1900700000000004
   264   1      65.463200483711276      62.585694879893481      3.0874199999999998
   265   1      16.435335257400876      62.032236102707408      22.492730000000002
   266   1      16.435335257400876      62.032236102707408      18.390070000000001
   267   1      16.435335257400876      62.032236102707408      14.287419999999999
   268   1      16.213969940692884      58.048002651984575      22.492730000000002
   269   1      16.213969940692884      58.048002651984575      18.390070000000001
   270   1      16.213969940692884      58.048002651984575      14.287419999999999
   271   1      16.656710558712405      66.016470108130434      22.492730000000002
   272   1      16.656710558712405      66.016470108130434      18.390070000000001
   273   1      15.107113958042511      38.126823749666293      22.492730000000002
   274   1      15.107113958042511      38.126823749666293      18.390070000000001
   275   1      15.107113958042511      38.126823749666293      14.287419999999999
   276   1      65.020507569908631      70.554167328341109      11.292730000000001
   277   1      65.020507569908631      70.554167328341109      7.1900700000000004
   278   1      65.020507569908631      70.554167328341109      3.0874199999999998
   279   1      15.549854021361837      46.095301190415682      22.492730000000002
   280   1      15.549854021361837      46.095301190415682      18.390070000000001
   281   1      15.549854021361837      46.095301190415682      14.287419999999999
   282   1      15.328488704653839      42.111067739692849      22.492730000000002
   283   1      15.328488704653839      42.111067739692849      18.390070000000001
   284   1      15.328488704653839      42.111067739692849      14.287419999999999
   285   1      15.771229322673362      50.079535195838716      22.492730000000002
   286   1      15.771229322673362      50.079535195838716      18.390070000000001
   287   1      15.771229322673362      50.079535195838716      14.287419999999999
   288   1      15.992594639381354      54.063768646561549      22.492730000000002
   289   1      14.000267405295473      18.205655386651731      14.287419999999999
   290   1      14.221642706606996      22.189889392074761      22.492730000000002
   291   1      14.221642706606996      22.189889392074761      18.390070000000001
   292   1      14.221642706606996      22.189889392074761      14.287419999999999
   293   1        64.7991600036069      2.6008250288420172      11.292730000000001
   294   1        64.7991600036069      2.6008250288420172      7.1900700000000004
   295   1        64.7991600036069      2.6008250288420172      3.0874199999999998
   296   1      14.664383324626519      30.158356848220624      22.492730000000002
   297   1      14.664383324626519      30.158356848220624      18.390070000000001
   298   1      14.664383324626519      30.158356848220624      14.287419999999999
   299   1      14.443008023314993      26.174122842797594      22.492730000000002
   300   1      14.443008023314993      26.174122842797594      18.390070000000001
   301   1      14.443008023314993      26.174122842797594      14.287419999999999
   302   1      14.885748641334516       34.14259029894346      22.492730000000002
   303   1      14.885748641334516       34.14259029894346      18.390070000000001
   304   1      14.885748641334516       34.14259029894346      14.287419999999999
   305   1      13.336161470567957       6.252954479783039      18.390070000000001
   306   1      13.336161470567957       6.252954479783039      14.287419999999999
   307   1      64.356467644504448      10.569287492686113      11.292730000000001
   308   1      64.356467644504448      10.569287492686113      7.1900700000000004
   309   1      64.356467644504448      10.569287492686113      3.0874199999999998
   310   1      64.577814101405778      6.5850512684622986      11.292730000000001
   311   1      64.577814101405778      6.5850512684622986      7.1900700000000004
   312   1      64.577814101405778      6.5850512684622986      3.0874199999999998
   313   1      13.778902088587477        14.2214219359289      22.492730000000002
   314   1      13.778902088587477        14.2214219359289      18.390070000000001
   315   1      13.778902088587477        14.2214219359289      14.287419999999999
   316   1       13.55752678727595      10.237187930505872      22.492730000000002
   317   1       13.55752678727595      10.237187930505872      18.390070000000001
   318   1       13.55752678727595      10.237187930505872      14.287419999999999
   319   1      14.000267405295473      18.205655386651731      22.492730000000002
   320   1      14.000267405295473      18.205655386651731      18.390070000000001
   321   1      20.198203946115907      57.826627350673043      18.390070000000001
   322   1      20.198203946115907      57.826627350673043      14.287419999999999
   323   1      20.640944564135431      65.795094806818909      22.492730000000002
   324   1      20.640944564135431      65.795094806818909      18.390070000000001
   325   1      20.640944564135431      65.795094806818909      14.287419999999999
   326   1      20.419569262823906      61.810860801395876      22.492730000000002
   327   1      64.135121187603133      14.553523716909927      11.292730000000001
   328   1      64.135121187603133      14.553523716909927      7.1900700000000004
   329   1      64.135121187603133      14.553523716909927      3.0874199999999998
   330   1      20.862309880843426      69.779328257541749      22.492730000000002
   331   1      20.862309880843426      69.779328257541749      18.390070000000001
   332   1      20.862309880843426      69.779328257541749      14.287419999999999
   333   1      13.114786169256428        2.26872047436001      22.492730000000002
   334   1      13.114786169256428        2.26872047436001      18.390070000000001
   335   1      13.114786169256428        2.26872047436001      14.287419999999999
   336   1      13.336161470567957       6.252954479783039      22.492730000000002
   337   1      19.312722710076866      41.889692438381324      22.492730000000002
   338   1      19.312722710076866      41.889692438381324      18.390070000000001
   339   1      19.312722710076866      41.889692438381324      14.287419999999999
   340   1       19.75546332809639      49.858159894527191      22.492730000000002
   341   1       19.75546332809639      49.858159894527191      18.390070000000001
   342   1       19.75546332809639      49.858159894527191      14.287419999999999
   343   1      19.534088026784861      45.873925889104157      22.492730000000002
   344   1       63.91377473070181      18.537759941133739      11.292730000000001
   345   1       63.91377473070181      18.537759941133739      7.1900700000000004
   346   1       63.91377473070181      18.537759941133739      3.0874199999999998
   347   1      19.976828644804385      53.842393345250024      22.492730000000002
   348   1      19.976828644804385      53.842393345250024      18.390070000000001
   349   1      19.976828644804385      53.842393345250024      14.287419999999999
   350   1      20.419569262823906      61.810860801395876      18.390070000000001
   351   1      20.419569262823906      61.810860801395876      14.287419999999999
   352   1      20.198203946115907      57.826627350673043      22.492730000000002
   353   1      18.427241474037828      25.952757526089602      14.287419999999999
   354   1      63.471081816899165      26.506232389581371      11.292730000000001
   355   1      63.471081816899165      26.506232389581371      7.1900700000000004
   356   1      63.471081816899165      26.506232389581371      3.0874199999999998
   357   1      63.692428273800488      22.521996165357553      11.292730000000001