(written by ASE)

10200 atoms
3 atom types

0.0      82.263772476769603  xlo xhi
0.0      82.263772476769603  ylo yhi
0.0                      50  zlo zhi

Masses

     1       137.3269999646734 # Ba
     2      15.998999995884349 # O
     3      47.866999987686484 # Ti

Atoms # atomic

     1   1      82.215379565790002      74.666473758814135      3.0874199999999998
     2   1      30.921500824005935      1.1129833714392319      11.292730000000001
     3   1      30.921500824005935      1.1129833714392319      7.1900700000000004
     4   1      30.921500824005935      1.1129833714392319      3.0874199999999998
     5   1      8.3716409750791119       1.886834999245157      22.492730000000002
     6   1      8.3716409750791119       1.886834999245157      18.390070000000001
     7   1       78.53770419754656      73.117978866922158      11.292730000000001
     8   1       78.53770419754656      73.117978866922158      7.1900700000000004
     9   1       78.53770419754656      73.117978866922158      3.0874199999999998
    10   1      76.989209305654583        76.7956542351656      11.292730000000001
    11   1      76.989209305654583        76.7956542351656      7.1900700000000004
    12   1      58.893522031375014      49.887791552559676      22.492730000000002
    13   1      45.245073238222922      28.792316467084476      7.1900700000000004
    14   1      45.245073238222922      28.792316467084476      3.0874199999999998
    15   1      43.696578346330952       32.46999183532791      11.292730000000001
    16   1      43.696578346330952       32.46999183532791      7.1900700000000004
    17   1      4.6940344869531891       3.435505001858405      22.492730000000002
    18   1      4.6940344869531891       3.435505001858405      18.390070000000001
    19   1      4.6940344869531891       3.435505001858405      14.287419999999999
    20   1       1.016431879397266      4.9841657881179016      22.492730000000002
    21   1      80.086199089438523       69.44030349867873      11.292730000000001
    22   1      80.086199089438523       69.44030349867873      7.1900700000000004
    23   1      80.086199089438523       69.44030349867873      3.0874199999999998
    24   1      12.049234366281283     0.33817033241566058      22.492730000000002
    25   1      12.049234366281283     0.33817033241566058      18.390070000000001
    26   1      12.049234366281283     0.33817033241566058      14.287419999999999
    27   1      80.666884673898025      78.344149127057577      11.292730000000001
    28   1      80.666884673898025      78.344149127057577      7.1900700000000004
    29   1      80.666884673898025      78.344149127057577      3.0874199999999998
    30   1      79.118393662576054      82.021815278947244      11.292730000000001
    31   1      79.118393662576054      82.021815278947244      7.1900700000000004
    32   1      82.215379565790002      74.666473758814135      7.1900700000000004
    33   1      73.311533937411156      75.247159343273623      7.1900700000000004
    34   1      73.311533937411156      75.247159343273623      3.0874199999999998
    35   1      20.953108128792621     0.91843293474508547      22.492730000000002
    36   1      20.953108128792621     0.91843293474508547      18.390070000000001
    37   1      20.953108128792621     0.91843293474508547      14.287419999999999
    38   1      5.5649047304148969      51.051925202247816      7.1900700000000004
    39   1      5.5649047304148969      51.051925202247816      3.0874199999999998
    40   1      4.0164098385229243       54.72960057049125      11.292730000000001
    41   1      4.0164098385229243       54.72960057049125      7.1900700000000004
    42   1      4.0164098385229243       54.72960057049125      3.0874199999999998
    43   1      27.824511040221992       8.468334107926097      11.292730000000001
    44   1      27.824511040221992       8.468334107926097      7.1900700000000004
    45   1      27.824511040221992       8.468334107926097      3.0874199999999998
    46   1       1.016431879397266      4.9841657881179016      18.390070000000001
    47   1       1.016431879397266      4.9841657881179016      14.287419999999999
    48   1      71.763042926089184      78.924825495163304      11.292730000000001
    49   1      9.9203017613386066      5.5644376068010786      18.390070000000001
    50   1      9.9203017613386066      5.5644376068010786      14.287419999999999
    51   1      7.1133957417368672      47.374259050358134      11.292730000000001
    52   1      7.1133957417368672      47.374259050358134      7.1900700000000004
    53   1      7.1133957417368672      47.374259050358134      3.0874199999999998
    54   1      26.276020028900021      12.146000259815779      11.292730000000001
    55   1      26.276020028900021      12.146000259815779      7.1900700000000004
    56   1      26.276020028900021      12.146000259815779      3.0874199999999998
    57   1      24.727525137008048      15.823675628059211      11.292730000000001
    58   1      24.727525137008048      15.823675628059211      7.1900700000000004
    59   1      24.727525137008048      15.823675628059211      3.0874199999999998
    60   1      8.6618906336288397      43.696583682114699      11.292730000000001
    61   1      17.275510857020453      2.4671068179283346      22.492730000000002
    62   1      17.275510857020453      2.4671068179283346      18.390070000000001
    63   1      17.275510857020453      2.4671068179283346      14.287419999999999
    64   1      73.311533937411156      75.247159343273623      11.292730000000001
    65   1      6.2427083701364374      7.1131022736305765      22.492730000000002
    66   1      6.2427083701364374      7.1131022736305765      18.390070000000001
    67   1      6.2427083701364374      7.1131022736305765      14.287419999999999
    68   1      77.957018613087072      64.214133238543326      11.292730000000001
    69   1      77.957018613087072      64.214133238543326      7.1900700000000004
    70   1      77.957018613087072      64.214133238543326      3.0874199999999998
    71   1      76.408523721195095      67.891808606786768      11.292730000000001
    72   1      76.408523721195095      67.891808606786768      7.1900700000000004
    73   1      76.408523721195095      67.891808606786768      3.0874199999999998
    74   1      74.860028829303133      71.569483975030195      11.292730000000001
    75   1      74.860028829303133      71.569483975030195      7.1900700000000004
    76   1      74.860028829303133      71.569483975030195      3.0874199999999998
    77   1      13.597908249464531      4.0157676041878307      22.492730000000002
    78   1      13.597908249464531      4.0157676041878307      18.390070000000001
    79   1      13.597908249464531      4.0157676041878307      14.287419999999999
    80   1      9.9203017613386066      5.5644376068010786      22.492730000000002
    81   1      79.505513504979049      60.536457870299891      7.1900700000000004
    82   1      79.505513504979049      60.536457870299891      3.0874199999999998
    83   1      2.5651018820105143      8.6617722762438234      22.492730000000002
    84   1      2.5651018820105143      8.6617722762438234      18.390070000000001
    85   1      8.6618906336288397      43.696583682114699      7.1900700000000004
    86   1      8.6618906336288397      43.696583682114699      3.0874199999999998
    87   1      23.179030245116074      19.501350996302644      11.292730000000001
    88   1      23.179030245116074      19.501350996302644      7.1900700000000004
    89   1      23.179030245116074      19.501350996302644      3.0874199999999998
    90   1      11.758880417412781      36.341232945627837      11.292730000000001
    91   1      11.758880417412781      36.341232945627837      7.1900700000000004
    92   1      11.758880417412781      36.341232945627837      3.0874199999999998
    93   1       10.21038552552081      40.018908313871272      11.292730000000001
    94   1       10.21038552552081      40.018908313871272      7.1900700000000004
    95   1       10.21038552552081      40.018908313871272      3.0874199999999998
    96   1      2.5651018820105143      8.6617722762438234      14.287419999999999
    97   1      81.054008396871012      56.858782502056464      7.1900700000000004
    98   1      81.054008396871012      56.858782502056464      3.0874199999999998
    99   1      29.856978010733965      1.4987047534282623      22.492730000000002
   100   1      29.856978010733965      1.4987047534282623      18.390070000000001
   101   1      29.856978010733965      1.4987047534282623      14.287419999999999
   102   1      13.307375309304755      32.663557577384402      11.292730000000001
   103   1      13.307375309304755      32.663557577384402      7.1900700000000004
   104   1      13.307375309304755      32.663557577384402      3.0874199999999998
   105   1      21.630535353224104      23.179026364546079      11.292730000000001
   106   1      21.630535353224104      23.179026364546079      7.1900700000000004
   107   1      21.630535353224104      23.179026364546079      3.0874199999999998
   108   1      14.855870201196726      28.985882209140971      11.292730000000001
   109   1      26.179375403178046      3.0473655396877599      22.492730000000002
   110   1      26.179375403178046      3.0473655396877599      18.390070000000001
   111   1      26.179375403178046      3.0473655396877599      14.287419999999999
   112   1      79.505513504979049      60.536457870299891      11.292730000000001
   113   1      18.824175523849949      6.1447002091305043      22.492730000000002
   114   1      18.824175523849949      6.1447002091305043      18.390070000000001
   115   1      18.824175523849949      6.1447002091305043      14.287419999999999
   116   1      69.633858569167714       73.69866445138166      11.292730000000001
   117   1      69.633858569167714       73.69866445138166      7.1900700000000004
   118   1      69.633858569167714       73.69866445138166      3.0874199999999998
   119   1      68.085367557845743      77.376330603271327      11.292730000000001
   120   1      68.085367557845743      77.376330603271327      7.1900700000000004
   121   1      68.085367557845743      77.376330603271327      3.0874199999999998
   122   1      22.501778131405871      4.5960394228710078      22.492730000000002
   123   1      22.501778131405871      4.5960394228710078      18.390070000000001
   124   1      22.501778131405871      4.5960394228710078      14.287419999999999
   125   1      66.536872665953766      81.054005971514769      11.292730000000001
   126   1      66.536872665953766      81.054005971514769      7.1900700000000004
   127   1      66.536872665953766      81.054005971514769      3.0874199999999998
   128   1      81.054008396871012      56.858782502056464      11.292730000000001
   129   1      15.146569035724028       7.693370211743753      14.287419999999999
   130   1      11.468975644521857        9.24203487857325      22.492730000000002
   131   1      11.468975644521857        9.24203487857325      18.390070000000001
   132   1      11.468975644521857        9.24203487857325      14.287419999999999
   133   1      14.855870201196726      28.985882209140971      7.1900700000000004
   134   1      14.855870201196726      28.985882209140971      3.0874199999999998
   135   1      20.082040461332134       26.85670173278951      11.292730000000001
   136   1      20.082040461332134       26.85670173278951      7.1900700000000004
   137   1      20.082040461332134       26.85670173278951      3.0874199999999998
   138   1      18.533545569440161      30.534377101032945      11.292730000000001
   139   1      18.533545569440161      30.534377101032945      7.1900700000000004
   140   1      18.533545569440161      30.534377101032945      3.0874199999999998
   141   1       17.95285998498067      21.630531472654106      11.292730000000001
   142   1       17.95285998498067      21.630531472654106      7.1900700000000004
   143   1       17.95285998498067      21.630531472654106      3.0874199999999998
   144   1        16.4043650930887      25.308206840897537      11.292730000000001
   145   1      7.7913691563959322      10.790704881186498      22.492730000000002
   146   1      7.7913691563959322      10.790704881186498      18.390070000000001
   147   1      7.7913691563959322      10.790704881186498      14.287419999999999
   148   1        16.4043650930887      25.308206840897537      7.1900700000000004
   149   1        16.4043650930887      25.308206840897537      3.0874199999999998
   150   1      19.501354876872639      17.952856104410671      11.292730000000001
   151   1      19.501354876872639      17.952856104410671      7.1900700000000004
   152   1      19.501354876872639      17.952856104410671      3.0874199999999998
   153   1      16.985050677548188      34.212052469276372      11.292730000000001
   154   1      16.985050677548188      34.212052469276372      7.1900700000000004
   155   1      16.985050677548188      34.212052469276372      3.0874199999999998
   156   1      71.182353461059691      70.020989083138218      11.292730000000001
   157   1      71.182353461059691      70.020989083138218      7.1900700000000004
   158   1      71.182353461059691      70.020989083138218      3.0874199999999998
   159   1      15.146569035724028       7.693370211743753      22.492730000000002
   160   1      15.146569035724028       7.693370211743753      18.390070000000001
   161   1      38.760851773245307        2.07896735575769      18.390070000000001
   162   1      75.827838136735608      58.987962978407921      11.292730000000001
   163   1      75.827838136735608      58.987962978407921      7.1900700000000004
   164   1      75.827838136735608      58.987962978407921      3.0874199999999998
   165   1      74.279343244843631      62.665638346651356      11.292730000000001
   166   1      74.279343244843631      62.665638346651356      7.1900700000000004
   167   1      74.279343244843631      62.665638346651356      3.0874199999999998
   168   1      4.1137626682700104      12.339374883799746      22.492730000000002
   169   1      4.1137626682700104      12.339374883799746      18.390070000000001
   170   1      4.1137626682700104      12.339374883799746      14.287419999999999
   171   1     0.43616927706783964      13.888039550629243      22.492730000000002
   172   1     0.43616927706783964      13.888039550629243      18.390070000000001
   173   1     0.43616927706783964      13.888039550629243      14.287419999999999
   174   1      72.730848352951654      66.343313714894791      11.292730000000001
   175   1      72.730848352951654      66.343313714894791      7.1900700000000004
   176   1      72.730848352951654      66.343313714894791      3.0874199999999998
   177   1       77.37633302862757      55.310287610164494      7.1900700000000004
   178   1       77.37633302862757      55.310287610164494      3.0874199999999998
   179   1      42.438454380801225     0.53030656949819488      22.492730000000002
   180   1      42.438454380801225     0.53030656949819488      18.390070000000001
   181   1      42.438454380801225     0.53030656949819488      14.287419999999999
   182   1      21.049849768764613      14.275180736167238      11.292730000000001
   183   1      21.049849768764613      14.275180736167238      7.1900700000000004
   184   1      21.049849768764613      14.275180736167238      3.0874199999999998
   185   1      15.436555785656216      37.889727837519807      11.292730000000001
   186   1      15.436555785656216      37.889727837519807      7.1900700000000004
   187   1      15.436555785656216      37.889727837519807      3.0874199999999998
   188   1      24.146835671978558      6.9198392160341236      11.292730000000001
   189   1      24.146835671978558      6.9198392160341236      7.1900700000000004
   190   1      24.146835671978558      6.9198392160341236      3.0874199999999998
   191   1      22.598344660656586      10.597505367923805      11.292730000000001
   192   1      38.760851773245307        2.07896735575769      22.492730000000002
   193   1      38.760851773245307        2.07896735575769      14.287419999999999
   194   1      35.083245285119382      3.6276373583709378      22.492730000000002
   195   1      22.598344660656586      10.597505367923805      7.1900700000000004
   196   1      22.598344660656586      10.597505367923805      3.0874199999999998
   197   1      13.888060893764244      41.567403205763242      11.292730000000001
   198   1      13.888060893764244      41.567403205763242      7.1900700000000004
   199   1      13.888060893764244      41.567403205763242      3.0874199999999998
   200   1      12.339566001872274      45.245078574006669      11.292730000000001
   201   1      12.339566001872274      45.245078574006669      7.1900700000000004
   202   1      12.339566001872274      45.245078574006669      3.0874199999999998
   203   1      25.695330563870527      3.2421638477906916      11.292730000000001
   204   1      25.695330563870527      3.2421638477906916      7.1900700000000004
   205   1      25.695330563870527      3.2421638477906916      3.0874199999999998
   206   1      35.083245285119382      3.6276373583709378      18.390070000000001
   207   1      35.083245285119382      3.6276373583709378      14.287419999999999
   208   1       77.37633302862757      55.310287610164494      11.292730000000001
   209   1      82.021817704303487       44.27726150543419      7.1900700000000004
   210   1      82.021817704303487       44.27726150543419      3.0874199999999998
   211   1       80.47332281241151      47.954936873677624      11.292730000000001
   212   1       80.47332281241151      47.954936873677624      7.1900700000000004
   213   1       80.47332281241151      47.954936873677624      3.0874199999999998
   214   1      27.728045405791288      6.7249720278136822      22.492730000000002
   215   1      27.728045405791288      6.7249720278136822      18.390070000000001
   216   1      27.728045405791288      6.7249720278136822      14.287419999999999
   217   1      24.050442798235366      8.2736328140731796      22.492730000000002
   218   1      24.050442798235366      8.2736328140731796      18.390070000000001
   219   1      31.405651893917213      5.1763020252004353      22.492730000000002
   220   1      31.405651893917213      5.1763020252004353      18.390070000000001
   221   1      31.405651893917213      5.1763020252004353      14.287419999999999
   222   1      78.924827920519547      51.632612241921059      11.292730000000001
   223   1      78.924827920519547      51.632612241921059      7.1900700000000004
   224   1      78.924827920519547      51.632612241921059      3.0874199999999998
   225   1      64.407692189602315       75.82783571137935      3.0874199999999998
   226   1      62.859197297710345      79.505511079622792      11.292730000000001
   227   1      62.859197297710345      79.505511079622792      7.1900700000000004
   228   1      62.859197297710345      79.505511079622792      3.0874199999999998
   229   1      24.050442798235366      8.2736328140731796      14.287419999999999
   230   1      20.372845526463198      9.8223066972564279      22.492730000000002
   231   1      20.372845526463198      9.8223066972564279      18.390070000000001
   232   1      10.791071109980303      48.922753942250104      11.292730000000001
   233   1      10.791071109980303      48.922753942250104      7.1900700000000004
   234   1      10.791071109980303      48.922753942250104      3.0874199999999998
   235   1      1.8872293621714653      49.503430310355839      11.292730000000001
   236   1      1.8872293621714653      49.503430310355839      7.1900700000000004
   237   1      1.8872293621714653      49.503430310355839      3.0874199999999998
   238   1     0.33873447027949288      53.181105678599273      11.292730000000001
   239   1      20.372845526463198      9.8223066972564279      14.287419999999999
   240   1      82.021817704303487       44.27726150543419      11.292730000000001
   241   1      65.956183200924286      72.150169559489683      3.0874199999999998
   242   1      16.695239038337274      11.370976699869678      22.492730000000002
   243   1     0.33873447027949288      53.181105678599273      7.1900700000000004
   244   1     0.33873447027949288      53.181105678599273      3.0874199999999998
   245   1      3.4357203734934361      45.825764158466164      11.292730000000001
   246   1      3.4357203734934361      45.825764158466164      7.1900700000000004
   247   1      3.4357203734934361      45.825764158466164      3.0874199999999998
   248   1      9.2425800986583315      52.600420094139785      11.292730000000001
   249   1      9.2425800986583315      52.600420094139785      7.1900700000000004
   250   1      9.2425800986583315      52.600420094139785      3.0874199999999998
   251   1      6.5327101572773785      38.470413421979302      7.1900700000000004
   252   1      6.5327101572773785      38.470413421979302      3.0874199999999998
   253   1      16.695239038337274      11.370976699869678      18.390070000000001
   254   1      16.695239038337274      11.370976699869678      14.287419999999999
   255   1      64.407692189602315       75.82783571137935      11.292730000000001
   256   1      64.407692189602315       75.82783571137935      7.1900700000000004
   257   1      8.0812050491693501      34.792738053735867      11.292730000000001
   258   1      1.9848300633273361      17.565642158185163      14.287419999999999
   259   1        9.34003915900918      14.468311369312421      14.287419999999999
   260   1      5.6624365514532595      16.016972155571917      22.492730000000002
   261   1      5.6624365514532595      16.016972155571917      18.390070000000001
   262   1      5.6624365514532595      16.016972155571917      14.287419999999999
   263   1      67.504678092816263      68.472494191246241      11.292730000000001
   264   1      67.504678092816263      68.472494191246241      7.1900700000000004
   265   1      67.504678092816263      68.472494191246241      3.0874199999999998
   266   1      13.017636430781351      12.919637486129172      22.492730000000002
   267   1      13.017636430781351      12.919637486129172      18.390070000000001
   268   1      13.017636430781351      12.919637486129172      14.287419999999999
   269   1        9.34003915900918      14.468311369312421      22.492730000000002
   270   1        9.34003915900918      14.468311369312421      18.390070000000001
   271   1      65.956183200924286      72.150169559489683      11.292730000000001
   272   1      65.956183200924286      72.150169559489683      7.1900700000000004
   273   1      70.601667876600203      61.117143454759379      7.1900700000000004
   274   1      70.601667876600203      61.117143454759379      3.0874199999999998
   275   1      69.053172984708226      64.794818823002814      11.292730000000001
   276   1      69.053172984708226      64.794818823002814      7.1900700000000004
   277   1      69.053172984708226      64.794818823002814      3.0874199999999998
   278   1      1.9848300633273361      17.565642158185163      22.492730000000002
   279   1      1.9848300633273361      17.565642158185163      18.390070000000001
   280   1      4.9842152653854086      42.148088790222729      11.292730000000001
   281   1      4.9842152653854086      42.148088790222729      7.1900700000000004
   282   1      4.9842152653854086      42.148088790222729      3.0874199999999998
   283   1       7.694085206766359       56.27809546238322      11.292730000000001
   284   1       7.694085206766359       56.27809546238322      7.1900700000000004
   285   1       7.694085206766359       56.27809546238322      3.0874199999999998
   286   1      6.1455903148743865      59.955770830626655      11.292730000000001
   287   1      6.1455903148743865      59.955770830626655      7.1900700000000004
   288   1      6.1455903148743865      59.955770830626655      3.0874199999999998
   289   1      51.342328143312571      1.1105691718276172      18.390070000000001
   290   1      51.342328143312571      1.1105691718276172      14.287419999999999
   291   1      47.664721655186646       2.659239174440867      22.492730000000002
   292   1      47.664721655186646       2.659239174440867      18.390070000000001
   293   1      47.664721655186646       2.659239174440867      14.287419999999999
   294   1      8.0812050491693501      34.792738053735867      7.1900700000000004
   295   1      8.0812050491693501      34.792738053735867      3.0874199999999998
   296   1      6.5327101572773785      38.470413421979302      11.292730000000001
   297   1      4.5970954229824139      63.633446198870089      11.292730000000001
   298   1      4.5970954229824139      63.633446198870089      7.1900700000000004
   299   1      4.5970954229824139      63.633446198870089      3.0874199999999998
   300   1      9.6296999410613235      31.115062685492429      11.292730000000001
   301   1      9.6296999410613235      31.115062685492429      7.1900700000000004
   302   1      9.6296999410613235      31.115062685492429      3.0874199999999998
   303   1      12.726689724845267      23.759711949005563      7.1900700000000004
   304   1      70.601667876600203      61.117143454759379      11.292730000000001
   305   1      73.698657660384143      53.761792718272517      3.0874199999999998
   306   1      43.987119047630721      4.2078999607003658      22.492730000000002
   307   1      43.987119047630721      4.2078999607003658      18.390070000000001
   308   1      12.726689724845267      23.759711949005563      3.0874199999999998
   309   1      11.178194832953295      27.437387317248998      11.292730000000001
   310   1      11.178194832953295      27.437387317248998      7.1900700000000004
   311   1      11.178194832953295      27.437387317248998      3.0874199999999998
   312   1       3.048600531090444      67.311121567113517      11.292730000000001
   313   1       3.048600531090444      67.311121567113517      7.1900700000000004
   314   1       3.048600531090444      67.311121567113517      3.0874199999999998
   315   1      14.275184616737238      20.082036580762132      11.292730000000001
   316   1      43.987119047630721      4.2078999607003658      14.287419999999999
   317   1       72.15016276849218      57.439468086515944      11.292730000000001
   318   1       72.15016276849218      57.439468086515944      7.1900700000000004
   319   1       72.15016276849218      57.439468086515944      3.0874199999999998
   320   1      51.342328143312571      1.1105691718276172      22.492730000000002
   321   1      32.954312680176706      8.8539046327563558      14.287419999999999
   322   1      14.275184616737238      20.082036580762132      7.1900700000000004
   323   1      14.275184616737238      20.082036580762132      3.0874199999999998
   324   1      12.726689724845267      23.759711949005563      11.292730000000001
   325   1      1.5001056391984713      70.988796935356959      11.292730000000001
   326   1      1.5001056391984713      70.988796935356959      7.1900700000000004
   327   1      1.5001056391984713      70.988796935356959      3.0874199999999998
   328   1       15.82367950862921      16.404361212518701      11.292730000000001
   329   1       15.82367950862921      16.404361212518701      7.1900700000000004
   330   1       15.82367950862921      16.404361212518701      3.0874199999999998
   331   1      18.920669292413155      9.0490104760318335      7.1900700000000004
   332   1      40.309521775858556      5.7565738438836123      22.492730000000002
   333   1      40.309521775858556      5.7565738438836123      18.390070000000001
   334   1      40.309521775858556      5.7565738438836123      14.287419999999999
   335   1      73.698657660384143      53.761792718272517      11.292730000000001
   336   1      73.698657660384143      53.761792718272517      7.1900700000000004
   337   1       78.34414233606006      42.728766613542213      7.1900700000000004
   338   1       78.34414233606006      42.728766613542213      3.0874199999999998
   339   1      29.276715408404538      10.402578515939604      22.492730000000002
   340   1      29.276715408404538      10.402578515939604      18.390070000000001
   341   1      29.276715408404538      10.402578515939604      14.287419999999999
   342   1      76.795647444168083      46.406441981785647      11.292730000000001
   343   1      76.795647444168083      46.406441981785647      7.1900700000000004
   344   1      76.795647444168083      46.406441981785647      3.0874199999999998
   345   1       75.24715255227612      50.084117350029082      11.292730000000001
   346   1       75.24715255227612      50.084117350029082      7.1900700000000004
   347   1       75.24715255227612      50.084117350029082      3.0874199999999998
   348   1       36.63191916830263      7.3052346301431079      22.492730000000002
   349   1       36.63191916830263      7.3052346301431079      18.390070000000001
   350   1       36.63191916830263      7.3052346301431079      14.287419999999999
   351   1      32.954312680176706      8.8539046327563558      22.492730000000002
   352   1      32.954312680176706      8.8539046327563558      18.390070000000001
   353   1      18.243912921520518      15.048573971641845      14.287419999999999
   354   1      79.892637227952036      39.051091245298785      11.292730000000001
   355   1      79.892637227952036      39.051091245298785      7.1900700000000004
   356   1      79.892637227952036      39.051091245298785      3.0874199999999998
   357   1      25.599112800848616      11.951239302199102      22.492730000000002