(written by ASE)

7800 atoms
3 atom types

0.0       71.93758217961323  xlo xhi
0.0       71.93758217961323  ylo yhi
0.0                      50  zlo zhi

Masses

     1       137.3269999646734 # Ba
     2      15.998999995884349 # O
     3      47.866999987686484 # Ti

Atoms # atomic

     1   1      47.866161597657658      30.711808414304144      3.0874199999999998
     2   1      55.391941132302641      28.055650931488266      11.292730000000001
     3   1      55.391941132302641      28.055650931488266      7.1900700000000004
     4   1      55.391941132302641      28.055650931488266      3.0874199999999998
     5   1       51.62905136498015      29.383729672896205      11.292730000000001
     6   1       51.62905136498015      29.383729672896205      7.1900700000000004
     7   1       51.62905136498015      29.383729672896205      3.0874199999999998
     8   1      44.103271830335167       32.03988715571208      11.292730000000001
     9   1      44.103271830335167       32.03988715571208      7.1900700000000004
    10   1      44.103271830335167       32.03988715571208      3.0874199999999998
    11   1      40.340382063012683      33.367965897120023      11.292730000000001
    12   1      40.340382063012683      33.367965897120023      7.1900700000000004
    13   1      40.340382063012683      33.367965897120023      3.0874199999999998
    14   1      62.917711237044287      25.399496776873569      7.1900700000000004
    15   1      62.917711237044287      25.399496776873569      3.0874199999999998
    16   1      59.154821469721796      26.727575518281508      11.292730000000001
    17   1      22.411340687313171      17.431000476317511      22.492730000000002
    18   1      22.411340687313171      17.431000476317511      18.390070000000001
    19   1      22.411340687313171      17.431000476317511      14.287419999999999
    20   1      18.648452029391073      16.102932828913499      22.492730000000002
    21   1      18.648452029391073      16.102932828913499      18.390070000000001
    22   1       53.62116947709206      70.996863570344928      11.292730000000001
    23   1       53.62116947709206      70.996863570344928      7.1900700000000004
    24   1       53.62116947709206      70.996863570344928      3.0874199999999998
    25   1      26.174232673436446      18.759077553624859      18.390070000000001
    26   1      26.174232673436446      18.759077553624859      14.287419999999999
    27   1      64.909838779059527      67.012627346121107      11.292730000000001
    28   1      64.909838779059527      67.012627346121107      7.1900700000000004
    29   1      64.909838779059527      67.012627346121107      3.0874199999999998
    30   1      66.237914192266288      70.775507683540269      11.292730000000001
    31   1      66.237914192266288      70.775507683540269      7.1900700000000004
    32   1      47.866161597657658      30.711808414304144      7.1900700000000004
    33   1        70.0008461168037      38.458856747822985      22.492730000000002
    34   1        70.0008461168037      38.458856747822985      18.390070000000001
    35   1        70.0008461168037      38.458856747822985      14.287419999999999
    36   1      66.237954130680421      37.130779670515629      22.492730000000002
    37   1      66.237954130680421      37.130779670515629      18.390070000000001
    38   1      66.237954130680421      37.130779670515629      14.287419999999999
    39   1      44.767311201039135      69.890131285838308      11.292730000000001
    40   1      44.767311201039135      69.890131285838308      7.1900700000000004
    41   1      44.767311201039135      69.890131285838308      3.0874199999999998
    42   1      41.004421433716644      71.218210027246243      11.292730000000001
    43   1      41.004421433716644      71.218210027246243      7.1900700000000004
    44   1      41.004421433716644      71.218210027246243      3.0874199999999998
    45   1      3.5968874130991475      10.790633949587434      22.492730000000002
    46   1      3.5968874130991475      10.790633949587434      18.390070000000001
    47   1      3.5968874130991475      10.790633949587434      14.287419999999999
    48   1      29.937124659559725      20.087154630932208      22.492730000000002
    49   1      33.700013317481819       21.41522227833622      14.287419999999999
    50   1      58.712173486635045      34.474634945804276      18.390070000000001
    51   1      58.712173486635045      34.474634945804276      14.287419999999999
    52   1      54.949281500511766       33.14655786849692      22.492730000000002
    53   1      54.949281500511766       33.14655786849692      18.390070000000001
    54   1      54.949281500511766       33.14655786849692      14.287419999999999
    55   1      52.293090735684117      67.233973803022437      11.292730000000001
    56   1      52.293090735684117      67.233973803022437      7.1900700000000004
    57   1      52.293090735684117      67.233973803022437      3.0874199999999998
    58   1      48.530200968361626      68.562052544430372      11.292730000000001
    59   1      48.530200968361626      68.562052544430372      7.1900700000000004
    60   1      48.530200968361626      68.562052544430372      3.0874199999999998
    61   1       62.47506214455715      35.802702593208288      22.492730000000002
    62   1       62.47506214455715      35.802702593208288      18.390070000000001
    63   1       62.47506214455715      35.802702593208288      14.287419999999999
    64   1      58.712173486635045      34.474634945804276      22.492730000000002
    65   1      36.134837656201078      26.506188013565669      14.287419999999999
    66   1      43.660618300246455       29.16233273827703      22.492730000000002
    67   1      43.660618300246455       29.16233273827703      18.390070000000001
    68   1      43.660618300246455       29.16233273827703      14.287419999999999
    69   1      39.897729642324357      27.834265090873018      22.492730000000002
    70   1      56.055980503006609      65.905895061614501      11.292730000000001
    71   1      56.055980503006609      65.905895061614501      7.1900700000000004
    72   1      56.055980503006609      65.905895061614501      3.0874199999999998
    73   1      51.186389514388495      31.818480791189572      22.492730000000002
    74   1      51.186389514388495      31.818480791189572      18.390070000000001
    75   1      51.186389514388495      31.818480791189572      14.287419999999999
    76   1      47.423500856466397       30.49041314378556      22.492730000000002
    77   1      47.423500856466397       30.49041314378556      18.390070000000001
    78   1      47.423500856466397       30.49041314378556      14.287419999999999
    79   1      33.700013317481819       21.41522227833622      22.492730000000002
    80   1      33.700013317481819       21.41522227833622      18.390070000000001
    81   1      32.371945670077807      25.178110936258321      22.492730000000002
    82   1      32.371945670077807      25.178110936258321      18.390070000000001
    83   1      32.371945670077807      25.178110936258321      14.287419999999999
    84   1      28.609057012155709      23.850043288854309      22.492730000000002
    85   1      28.609057012155709      23.850043288854309      18.390070000000001
    86   1      41.225797289728369       24.07137643295092      18.390070000000001
    87   1      69.336771245287167      4.3715057132204196      22.492730000000002
    88   1      69.336771245287167      4.3715057132204196      18.390070000000001
    89   1      69.336771245287167      4.3715057132204196      14.287419999999999
    90   1      59.818870270329093      64.577816320206566      11.292730000000001
    91   1      59.818870270329093      64.577816320206566      7.1900700000000004
    92   1      59.818870270329093      64.577816320206566      3.0874199999999998
    93   1      39.897729642324357      27.834265090873018      18.390070000000001
    94   1      39.897729642324357      27.834265090873018      14.287419999999999
    95   1      36.134837656201078      26.506188013565669      22.492730000000002
    96   1      36.134837656201078      26.506188013565669      18.390070000000001
    97   1      21.083273039909159      21.193889134239608      14.287419999999999
    98   1      17.320384381987058      19.865821486835593      22.492730000000002
    99   1      17.320384381987058      19.865821486835593      18.390070000000001
   100   1      17.320384381987058      19.865821486835593      14.287419999999999
   101   1      24.846165026032434       22.52196621154696      22.492730000000002
   102   1      24.846165026032434       22.52196621154696      18.390070000000001
   103   1      24.846165026032434       22.52196621154696      14.287419999999999
   104   1      21.083273039909159      21.193889134239608      22.492730000000002
   105   1      63.581760037651591      63.249737578798623      11.292730000000001
   106   1      63.581760037651591      63.249737578798623      7.1900700000000004
   107   1      63.581760037651591      63.249737578798623      3.0874199999999998
   108   1      41.225797289728369       24.07137643295092      14.287419999999999
   109   1      37.462905303605098      22.743299355643572      22.492730000000002
   110   1      37.462905303605098      22.743299355643572      18.390070000000001
   111   1      37.462905303605098      22.743299355643572      14.287419999999999
   112   1      28.609057012155709      23.850043288854309      14.287419999999999
   113   1      6.0317117518184098      15.881599684816882      14.287419999999999
   114   1      2.2688197656951341      14.553522607509533      22.492730000000002
   115   1      2.2688197656951341      14.553522607509533      18.390070000000001
   116   1       71.10753014239323      60.593583424183919      11.292730000000001
   117   1       71.10753014239323      60.593583424183919      7.1900700000000004
   118   1       71.10753014239323      60.593583424183919      3.0874199999999998
   119   1      67.344649804974082       61.92165883739068      11.292730000000001
   120   1      67.344649804974082       61.92165883739068      7.1900700000000004
   121   1      67.344649804974082       61.92165883739068      3.0874199999999998
   122   1      13.557492395863784      18.537744409528244      22.492730000000002
   123   1      13.557492395863784      18.537744409528244      18.390070000000001
   124   1      13.557492395863784      18.537744409528244      14.287419999999999
   125   1      9.7946004097405073      17.209667332220892      22.492730000000002
   126   1      9.7946004097405073      17.209667332220892      18.390070000000001
   127   1      9.7946004097405073      17.209667332220892      14.287419999999999
   128   1      21.083273039909159      21.193889134239608      18.390070000000001
   129   1      68.672778469399674      42.221745405745075      14.287419999999999
   130   1      35.913452924986224      68.783399001331702      7.1900700000000004
   131   1      35.913452924986224      68.783399001331702      3.0874199999999998
   132   1      32.150563157663733      70.111477742739652      11.292730000000001
   133   1      32.150563157663733      70.111477742739652      7.1900700000000004
   134   1      32.150563157663733      70.111477742739652      3.0874199999999998
   135   1      28.387673390341241      71.439556484147587      11.292730000000001
   136   1      28.387673390341241      71.439556484147587      7.1900700000000004
   137   1      28.387673390341241      71.439556484147587      3.0874199999999998
   138   1      2.2688197656951341      14.553522607509533      14.287419999999999
   139   1      44.988685947650474       25.39944408035494      22.492730000000002
   140   1      44.988685947650474       25.39944408035494      18.390070000000001
   141   1      44.988685947650474       25.39944408035494      14.287419999999999
   142   1      41.225797289728369       24.07137643295092      22.492730000000002
   143   1      6.0317117518184098      15.881599684816882      22.492730000000002
   144   1      6.0317117518184098      15.881599684816882      18.390070000000001
   145   1      49.858321866984483      35.581369449111669      18.390070000000001
   146   1      61.146994497153131      39.565591251130378      18.390070000000001
   147   1      61.146994497153131      39.565591251130378      14.287419999999999
   148   1      57.384105839231033      38.237523603726366      22.492730000000002
   149   1      57.384105839231033      38.237523603726366      18.390070000000001
   150   1      57.384105839231033      38.237523603726366      14.287419999999999
   151   1      39.676342692308715      67.455320259923766      11.292730000000001
   152   1      39.676342692308715      67.455320259923766      7.1900700000000004
   153   1      39.676342692308715      67.455320259923766      3.0874199999999998
   154   1      35.913452924986224      68.783399001331702      11.292730000000001
   155   1      64.909886483276409      40.893668328437734      22.492730000000002
   156   1      64.909886483276409      40.893668328437734      18.390070000000001
   157   1      64.909886483276409      40.893668328437734      14.287419999999999
   158   1      61.146994497153131      39.565591251130378      22.492730000000002
   159   1      68.672778469399674      42.221745405745075      22.492730000000002
   160   1      68.672778469399674      42.221745405745075      18.390070000000001
   161   1      46.095433209062385      34.253301801707657      14.287419999999999
   162   1      42.332541222939106      32.925224724400309      22.492730000000002
   163   1      48.751577933773746      26.727521157662277      22.492730000000002
   164   1      48.751577933773746      26.727521157662277      18.390070000000001
   165   1      48.751577933773746      26.727521157662277      14.287419999999999
   166   1      49.858321866984483      35.581369449111669      14.287419999999999
   167   1      47.202122226953698      64.799162777107895      11.292730000000001
   168   1      47.202122226953698      64.799162777107895      7.1900700000000004
   169   1      47.202122226953698      64.799162777107895      3.0874199999999998
   170   1      43.439232459631206      66.127241518515831      11.292730000000001
   171   1      43.439232459631206      66.127241518515831      7.1900700000000004
   172   1      43.439232459631206      66.127241518515831      3.0874199999999998
   173   1      53.621213853107754      36.909446526419025      22.492730000000002
   174   1      53.621213853107754      36.909446526419025      18.390070000000001
   175   1      53.621213853107754      36.909446526419025      14.287419999999999
   176   1      49.858321866984483      35.581369449111669      22.492730000000002
   177   1      34.806760578893737      30.269079999688945      14.287419999999999
   178   1      31.043868592770455      28.941002922381589      22.492730000000002
   179   1      31.043868592770455      28.941002922381589      18.390070000000001
   180   1      31.043868592770455      28.941002922381589      14.287419999999999
   181   1      65.573879259163888      3.0434286359130729      22.492730000000002
   182   1      65.573879259163888      3.0434286359130729      18.390070000000001
   183   1      65.573879259163888      3.0434286359130729      14.287419999999999
   184   1      61.810990601241791      1.7153609885090553      22.492730000000002
   185   1      61.810990601241791      1.7153609885090553      18.390070000000001
   186   1      42.332541222939106      32.925224724400309      18.390070000000001
   187   1      42.332541222939106      32.925224724400309      14.287419999999999
   188   1      38.569649236815827      31.597147647092957      22.492730000000002
   189   1      38.569649236815827      31.597147647092957      18.390070000000001
   190   1      38.569649236815827      31.597147647092957      14.287419999999999
   191   1      46.095433209062385      34.253301801707657      22.492730000000002
   192   1      46.095433209062385      34.253301801707657      18.390070000000001
   193   1      56.277358577819115      29.383665882373645      14.287419999999999
   194   1      52.514466591695836      28.055588805066289      22.492730000000002
   195   1      52.514466591695836      28.055588805066289      18.390070000000001
   196   1      52.514466591695836      28.055588805066289      14.287419999999999
   197   1      23.518087948725086      26.284858197670236      22.492730000000002
   198   1      54.727901761598673      62.143005294292017      11.292730000000001
   199   1      54.727901761598673      62.143005294292017      7.1900700000000004
   200   1      54.727901761598673      62.143005294292017      3.0874199999999998
   201   1      50.965011994276189       63.47108403569996      11.292730000000001
   202   1      50.965011994276189       63.47108403569996      7.1900700000000004
   203   1      50.965011994276189       63.47108403569996      3.0874199999999998
   204   1      27.280979934848357      27.612935274977577      22.492730000000002
   205   1      27.280979934848357      27.612935274977577      18.390070000000001
   206   1      27.280979934848357      27.612935274977577      14.287419999999999
   207   1      34.806760578893737      30.269079999688945      22.492730000000002
   208   1      34.806760578893737      30.269079999688945      18.390070000000001
   209   1      8.4665233324331588      20.972559318344171      14.287419999999999
   210   1      15.992307304679709      23.628713472958868      22.492730000000002
   211   1      15.992307304679709      23.628713472958868      18.390070000000001
   212   1      15.992307304679709      23.628713472958868      14.287419999999999
   213   1      12.229415318556436      22.300636395651519      22.492730000000002
   214   1      12.229415318556436      22.300636395651519      18.390070000000001
   215   1      12.229415318556436      22.300636395651519      14.287419999999999
   216   1      58.490791528921164      60.814926552884081      11.292730000000001
   217   1      58.490791528921164      60.814926552884081      7.1900700000000004
   218   1      58.490791528921164      60.814926552884081      3.0874199999999998
   219   1      23.518087948725086      26.284858197670236      18.390070000000001
   220   1      23.518087948725086      26.284858197670236      14.287419999999999
   221   1       19.75519596260181      24.956781120362887      22.492730000000002
   222   1       19.75519596260181      24.956781120362887      18.390070000000001
   223   1       19.75519596260181      24.956781120362887      14.287419999999999
   224   1      56.277358577819115      29.383665882373645      18.390070000000001
   225   1      71.107590050014423      47.312705039272373      18.390070000000001
   226   1      71.107590050014423      47.312705039272373      14.287419999999999
   227   1      66.016571063566147      58.158769070068203      11.292730000000001
   228   1      66.016571063566147      58.158769070068203      7.1900700000000004
   229   1      66.016571063566147      58.158769070068203      3.0874199999999998
   230   1      62.253681296243656      59.486847811476146      11.292730000000001
   231   1      62.253681296243656      59.486847811476146      7.1900700000000004
   232   1      62.253681296243656      59.486847811476146      3.0874199999999998
   233   1      4.7036346745110604      19.644491670940155      22.492730000000002
   234   1      4.7036346745110604      19.644491670940155      18.390070000000001
   235   1      4.7036346745110604      19.644491670940155      14.287419999999999
   236   1     0.94074268838778485       18.31641459363281      22.492730000000002
   237   1     0.94074268838778485       18.31641459363281      18.390070000000001
   238   1     0.94074268838778485       18.31641459363281      14.287419999999999
   239   1      8.4665233324331588      20.972559318344171      22.492730000000002
   240   1      8.4665233324331588      20.972559318344171      18.390070000000001
   241   1      63.581809405969061      44.656560314561005      18.390070000000001
   242   1      63.581809405969061      44.656560314561005      14.287419999999999
   243   1      59.818917419845782      43.328483237253657      22.492730000000002
   244   1      59.818917419845782      43.328483237253657      18.390070000000001
   245   1      59.818917419845782      43.328483237253657      14.287419999999999
   246   1      67.344701392092333      45.984637391868361      22.492730000000002
   247   1      67.344701392092333      45.984637391868361      18.390070000000001
   248   1      67.344701392092333      45.984637391868361      14.287419999999999
   249   1      58.048098615118519      0.3872839112017058      22.492730000000002
   250   1      58.048098615118519      0.3872839112017058      18.390070000000001
   251   1      58.048098615118519      0.3872839112017058      14.287419999999999
   252   1      71.107590050014423      47.312705039272373      22.492730000000002
   253   1      60.040250563942394      30.711742959680993      22.492730000000002
   254   1      60.040250563942394      30.711742959680993      18.390070000000001
   255   1      60.040250563942394      30.711742959680993      14.287419999999999
   256   1      56.277358577819115      29.383665882373645      22.492730000000002
   257   1      52.293136775800413      40.672338512542289      14.287419999999999
   258   1      48.530244789677134      39.344261435234948      22.492730000000002
   259   1      48.530244789677134      39.344261435234948      18.390070000000001
   260   1      48.530244789677134      39.344261435234948      14.287419999999999
   261   1      15.770934776869165      71.660899612847729      7.1900700000000004
   262   1      15.770934776869165      71.660899612847729      3.0874199999999998
   263   1      69.779451400985309      56.830693656861442      11.292730000000001
   264   1      69.779451400985309      56.830693656861442      7.1900700000000004
   265   1      69.779451400985309      56.830693656861442      3.0874199999999998
   266   1      61.810990601241791      1.7153609885090553      14.287419999999999
   267   1      56.056028761923685      42.000415589849645      22.492730000000002
   268   1      56.056028761923685      42.000415589849645      18.390070000000001
   269   1      56.056028761923685      42.000415589849645      14.287419999999999
   270   1      52.293136775800413      40.672338512542289      22.492730000000002
   271   1      52.293136775800413      40.672338512542289      18.390070000000001
   272   1      63.581809405969061      44.656560314561005      22.492730000000002
   273   1      44.767356131755029      38.016193787830936      22.492730000000002
   274   1      44.767356131755029      38.016193787830936      18.390070000000001
   275   1      44.767356131755029      38.016193787830936      14.287419999999999
   276   1      41.004464145631758      36.688116710523587      22.492730000000002
   277   1      41.004464145631758      36.688116710523587      18.390070000000001
   278   1      41.004464145631758      36.688116710523587      14.287419999999999
   279   1      23.296714311514148      69.004742130031858      11.292730000000001
   280   1      23.296714311514148      69.004742130031858      7.1900700000000004
   281   1      23.296714311514148      69.004742130031858      3.0874199999999998
   282   1      19.533824544191656      70.332820871439793      11.292730000000001
   283   1      19.533824544191656      70.332820871439793      7.1900700000000004
   284   1      19.533824544191656      70.332820871439793      3.0874199999999998
   285   1      15.770934776869165      71.660899612847729      11.292730000000001
   286   1      63.803139221864491      32.039810607085009      22.492730000000002
   287   1      63.803139221864491      32.039810607085009      18.390070000000001
   288   1      63.803139221864491      32.039810607085009      14.287419999999999
   289   1      22.190010871417734      30.047750183793504      14.287419999999999
   290   1      33.478683501586382       34.03197198581222      14.287419999999999
   291   1       29.71579151546311      32.703894908504871      22.492730000000002
   292   1       29.71579151546311      32.703894908504871      18.390070000000001
   293   1       29.71579151546311      32.703894908504871      14.287419999999999
   294   1      30.822484416255794      66.348587975417161      11.292730000000001
   295   1      30.822484416255794      66.348587975417161      7.1900700000000004
   296   1      30.822484416255794      66.348587975417161      3.0874199999999998
   297   1      27.059594648933302      67.676666716825096      11.292730000000001
   298   1      27.059594648933302      67.676666716825096      7.1900700000000004
   299   1      27.059594648933302      67.676666716825096      3.0874199999999998
   300   1      37.241572159508486      35.360039633216239      22.492730000000002
   301   1      37.241572159508486      35.360039633216239      18.390070000000001
   302   1      37.241572159508486      35.360039633216239      14.287419999999999
   303   1      33.478683501586382       34.03197198581222      22.492730000000002
   304   1      33.478683501586382       34.03197198581222      18.390070000000001
   305   1      14.664230227372361      27.391605459082147      22.492730000000002
   306   1      14.664230227372361      27.391605459082147      18.390070000000001
   307   1      18.427118885294458      28.719673106486159      22.492730000000002
   308   1      18.427118885294458      28.719673106486159      18.390070000000001
   309   1      18.427118885294458      28.719673106486159      14.287419999999999
   310   1      71.328923194111042      34.695964761699706      18.390070000000001
   311   1      38.348263950900773      63.692430492601282      7.1900700000000004
   312   1      38.348263950900773      63.692430492601282      3.0874199999999998
   313   1      34.585374183578281      65.020509234009211      11.292730000000001
   314   1      34.585374183578281      65.020509234009211      7.1900700000000004
   315   1      34.585374183578281      65.020509234009211      3.0874199999999998
   316   1      25.952902857541009      31.375827261100859      22.492730000000002
   317   1      25.952902857541009      31.375827261100859      18.390070000000001
   318   1      25.952902857541009      31.375827261100859      14.287419999999999
   319   1      22.190010871417734      30.047750183793504      22.492730000000002
   320   1      22.190010871417734      30.047750183793504      18.390070000000001
   321   1      7.1384462551258085      24.735451304467446      14.287419999999999
   322   1      3.3755670271070475      23.407380328862256      22.492730000000002
   323   1      3.3755670271070475      23.407380328862256      18.390070000000001
   324   1      3.3755670271070475      23.407380328862256      14.287419999999999
   325   1      14.664230227372361      27.391605459082147      14.287419999999999
   326   1      10.901338241249086      26.063528381774795      22.492730000000002
   327   1      10.901338241249086      26.063528381774795      18.390070000000001
   328   1      10.901338241249086      26.063528381774795      14.287419999999999
   329   1      42.111153718223264       62.36435175119334      11.292730000000001
   330   1      42.111153718223264       62.36435175119334      7.1900700000000004
   331   1      42.111153718223264       62.36435175119334      3.0874199999999998
   332   1      38.348263950900773      63.692430492601282      11.292730000000001
   333   1      71.328923194111042      34.695964761699706      14.287419999999999
   334   1      67.566031207987763      33.367887684392358      22.492730000000002
   335   1      67.566031207987763      33.367887684392358      18.390070000000001
   336   1      67.566031207987763      33.367887684392358      14.287419999999999
   337   1      62.253732328661712      48.419452300684284      18.390070000000001
   338   1      62.253732328661712      48.419452300684284      14.287419999999999
   339   1      66.016624314784991      49.747529377991633      22.492730000000002
   340   1      66.016624314784991      49.747529377991633      18.390070000000001
   341   1      66.016624314784991      49.747529377991633      14.287419999999999
   342   1      4.9249644904064969      7.0277419634641598      14.287419999999999
   343   1      45.874043485545755      61.036273009785404      7.1900700000000004
   344   1       71.77158615410309      9.4624747766510442      22.492730000000002
   345   1       71.77158615410309      9.4624747766510442      18.390070000000001
   346   1       71.77158615410309      9.4624747766510442      14.287419999999999
   347   1      45.874043485545755      61.036273009785404      3.0874199999999998
   348   1      69.779512972707082      51.075597025395652      22.492730000000002
   349   1      69.779512972707082      51.075597025395652      18.390070000000001
   350   1      69.779512972707082      51.075597025395652      14.287419999999999
   351   1      7.1384462551258085      24.735451304467446      22.492730000000002
   352   1      7.1384462551258085      24.735451304467446      18.390070000000001
   353   1      54.727951684616336      45.763307575972924      14.287419999999999
   354   1      50.965059698493057      44.435230498665575      22.492730000000002
   355   1      50.965059698493057      44.435230498665575      18.390070000000001
   356   1      50.965059698493057      44.435230498665575      14.287419999999999
   357   1      58.490840342538434      47.091375223376936      22.492730000000002