(written by ASE)

3000 atoms
3 atom types

0.0      44.613794563188492  xlo xhi
0.0      44.613794563188492  ylo yhi
0.0                      50  zlo zhi

Masses

     1       137.3269999646734 # Ba
     2      15.998999995884349 # O
     3      47.866999987686484 # Ti

Atoms # atomic

     1   1      30.961974634336229      19.719297643760541      7.1900700000000004
     2   1      30.961974634336229      19.719297643760541      3.0874199999999998
     3   1      38.814004258065168      18.291655893991646      3.0874199999999998
     4   1      34.887989446200699      19.005476768876093      11.292730000000001
     5   1      34.887989446200699      19.005476768876093      7.1900700000000004
     6   1      34.887989446200699      19.005476768876093      3.0874199999999998
     7   1      27.035959822471764      20.433118518644992      11.292730000000001
     8   1      27.035959822471764      20.433118518644992      7.1900700000000004
     9   1      27.035959822471764      20.433118518644992      3.0874199999999998
    10   1      23.109945010607291       21.14693939352944      11.292730000000001
    11   1      23.109945010607291       21.14693939352944      7.1900700000000004
    12   1      42.740019069929637      17.577835019107194      11.292730000000001
    13   1      42.740019069929637      17.577835019107194      7.1900700000000004
    14   1      42.740019069929637      17.577835019107194      3.0874199999999998
    15   1      38.814004258065168      18.291655893991646      11.292730000000001
    16   1      38.814004258065168      18.291655893991646      7.1900700000000004
    17   1      38.813979214103817      4.0154539532556965      18.390070000000001
    18   1      38.813979214103817      4.0154539532556965      14.287419999999999
    19   1      42.739991342686722      4.7292918222567737      22.492730000000002
    20   1      42.739991342686722      4.7292918222567737      18.390070000000001
    21   1      42.739991342686722      4.7292918222567737      14.287419999999999
    22   1      39.527817083104893    0.089441824672800832      14.287419999999999
    23   1      10.974988348717281      43.632287113690474      11.292730000000001
    24   1      10.974988348717281      43.632287113690474      7.1900700000000004
    25   1      10.974988348717281      43.632287113690474      3.0874199999999998
    26   1       7.048983375551912      44.346106199720545      11.292730000000001
    27   1       7.048983375551912      44.346106199720545      7.1900700000000004
    28   1       7.048983375551912      44.346106199720545      3.0874199999999998
    29   1      43.096927718517478      41.847734926479362      11.292730000000001
    30   1      31.318883282924073      43.989197551132705      11.292730000000001
    31   1      31.318883282924073      43.989197551132705      7.1900700000000004
    32   1      30.961974634336229      19.719297643760541      11.292730000000001
    33   1      38.100139556248365      7.9414562431394904      22.492730000000002
    34   1      38.100139556248365      7.9414562431394904      18.390070000000001
    35   1      38.100139556248365      7.9414562431394904      14.287419999999999
    36   1      42.026153473685639      8.6553039508396719      22.492730000000002
    37   1      42.026153473685639      8.6553039508396719      18.390070000000001
    38   1      42.026153473685639      8.6553039508396719      14.287419999999999
    39   1      19.183924832179677     0.44624314199772269      22.492730000000002
    40   1      19.183924832179677     0.44624314199772269      18.390070000000001
    41   1      19.183924832179677     0.44624314199772269      14.287419999999999
    42   1      26.679047596175156      40.777003614152683      3.0874199999999998
    43   1      22.753032784310687      41.490824489037131      11.292730000000001
    44   1      22.753032784310687      41.490824489037131      7.1900700000000004
    45   1      22.753032784310687      41.490824489037131      3.0874199999999998
    46   1      23.109936960762575      1.1600810109988007      22.492730000000002
    47   1      23.109936960762575      1.1600810109988007      18.390070000000001
    48   1      23.109936960762575      1.1600810109988007      14.287419999999999
    49   1      22.396099091761496      5.0860931395816955      18.390070000000001
    50   1      22.396099091761496      5.0860931395816955      14.287419999999999
    51   1      26.322111220344389      5.7999310085827744      22.492730000000002
    52   1      26.322111220344389      5.7999310085827744      18.390070000000001
    53   1      26.322111220344389      5.7999310085827744      14.287419999999999
    54   1      30.605062408039625      40.063182739268228      11.292730000000001
    55   1      30.605062408039625      40.063182739268228      7.1900700000000004
    56   1      30.605062408039625      40.063182739268228      3.0874199999999998
    57   1      26.679047596175156      40.777003614152683      11.292730000000001
    58   1      26.679047596175156      40.777003614152683      7.1900700000000004
    59   1      34.174127427665461      7.2276183741384132      22.492730000000002
    60   1      34.174127427665461      7.2276183741384132      18.390070000000001
    61   1      34.174127427665461      7.2276183741384132      14.287419999999999
    62   1      30.248115299082567      6.5137805051373361      22.492730000000002
    63   1      30.248115299082567      6.5137805051373361      18.390070000000001
    64   1      30.248115299082567      6.5137805051373361      14.287419999999999
    65   1      6.6920586272746299       2.230730036023902      22.492730000000002
    66   1      6.6920586272746299       2.230730036023902      18.390070000000001
    67   1      6.6920586272746299       2.230730036023902      14.287419999999999
    68   1      10.618070755857525      2.9445679050249804      22.492730000000002
    69   1      10.618070755857525      2.9445679050249804      18.390070000000001
    70   1      10.618070755857525      2.9445679050249804      14.287419999999999
    71   1      34.531077219904091      39.349361864383781      11.292730000000001
    72   1      34.531077219904091      39.349361864383781      7.1900700000000004
    73   1      34.531077219904091      39.349361864383781      3.0874199999999998
    74   1      18.470086963178598      4.3722552705806184      22.492730000000002
    75   1      18.470086963178598      4.3722552705806184      18.390070000000001
    76   1      18.470086963178598      4.3722552705806184      14.287419999999999
    77   1      14.544073045741321      3.6584075628804404      22.492730000000002
    78   1      14.544073045741321      3.6584075628804404      18.390070000000001
    79   1      14.544073045741321      3.6584075628804404      14.287419999999999
    80   1      22.396099091761496      5.0860931395816955      22.492730000000002
    81   1      37.386291848548183      11.867470160576771      18.390070000000001
    82   1      37.386291848548183      11.867470160576771      14.287419999999999
    83   1      33.460289558664385      11.153630502721308      22.492730000000002
    84   1      33.460289558664385      11.153630502721308      18.390070000000001
    85   1      33.460289558664385      11.153630502721308      14.287419999999999
    86   1      41.312303977131073      12.581308029577849      22.492730000000002
    87   1      41.312303977131073      12.581308029577849      18.390070000000001
    88   1      41.312303977131073      12.581308029577849      14.287419999999999
    89   1      37.386291848548183      11.867470160576771      22.492730000000002
    90   1       42.38310684363303      37.921720114614885      3.0874199999999998
    91   1      38.457092031768561      38.635540989499333      11.292730000000001
    92   1      38.457092031768561      38.635540989499333      7.1900700000000004
    93   1      38.457092031768561      38.635540989499333      3.0874199999999998
    94   1       2.766044709837352      1.5168823283237236      22.492730000000002
    95   1       2.766044709837352      1.5168823283237236      18.390070000000001
    96   1       2.766044709837352      1.5168823283237236      14.287419999999999
    97   1      21.682261222760417      9.0121052681645928      14.287419999999999
    98   1      17.756247305323139       8.298257560464414      22.492730000000002
    99   1      17.756247305323139       8.298257560464414      18.390070000000001
   100   1      17.756247305323139       8.298257560464414      14.287419999999999
   101   1      25.608263512644211      9.7259449260200537      22.492730000000002
   102   1      25.608263512644211      9.7259449260200537      18.390070000000001
   103   1      25.608263512644211      9.7259449260200537      14.287419999999999
   104   1      21.682261222760417      9.0121052681645928      22.492730000000002
   105   1      2.4091494776573752       41.13392210143963      11.292730000000001
   106   1      2.4091494776573752       41.13392210143963      7.1900700000000004
   107   1      2.4091494776573752       41.13392210143963      3.0874199999999998
   108   1       42.38310684363303      37.921720114614885      11.292730000000001
   109   1       42.38310684363303      37.921720114614885      7.1900700000000004
   110   1      29.534275641227108      10.439782795021131      22.492730000000002
   111   1      29.534275641227108      10.439782795021131      18.390070000000001
   112   1      29.534275641227108      10.439782795021131      14.287419999999999
   113   1      5.9782189694191699      6.1567323259076971      18.390070000000001
   114   1      5.9782189694191699      6.1567323259076971      14.287419999999999
   115   1      2.0522068408362744      5.4428944569066191      22.492730000000002
   116   1      2.0522068408362744      5.4428944569066191      18.390070000000001
   117   1      2.0522068408362744      5.4428944569066191      14.287419999999999
   118   1      9.9042230481573483      6.8705818224622588      22.492730000000002
   119   1      9.9042230481573483      6.8705818224622588      18.390070000000001
   120   1      9.9042230481573483      6.8705818224622588      14.287419999999999
   121   1      5.9782189694191699      6.1567323259076971      22.492730000000002
   122   1      6.3351642895218445      40.420101226555182      11.292730000000001
   123   1      6.3351642895218445      40.420101226555182      7.1900700000000004
   124   1      6.3351642895218445      40.420101226555182      3.0874199999999998
   125   1      13.830235176740244      7.5844196914633342      22.492730000000002
   126   1      13.830235176740244      7.5844196914633342      18.390070000000001
   127   1      13.830235176740244      7.5844196914633342      14.287419999999999
   128   1      21.682261222760417      9.0121052681645928      18.390070000000001
   129   1      24.894425643643135      13.651957054602951      18.390070000000001
   130   1      32.746440062109826      15.079634581459487      22.492730000000002
   131   1      32.746440062109826      15.079634581459487      18.390070000000001
   132   1      32.746440062109826      15.079634581459487      14.287419999999999
   133   1      40.598466108129998      16.507320158160741      14.287419999999999
   134   1        36.6724539795471      15.793482289159666      22.492730000000002
   135   1        36.6724539795471      15.793482289159666      18.390070000000001
   136   1        36.6724539795471      15.793482289159666      14.287419999999999
   137   1      10.261169262687213      39.706282140525111      11.292730000000001
   138   1      10.261169262687213      39.706282140525111      7.1900700000000004
   139   1      10.261169262687213      39.706282140525111      3.0874199999999998
   140   1      44.524478236712895       17.22115802716182      22.492730000000002
   141   1      44.524478236712895       17.22115802716182      18.390070000000001
   142   1      44.524478236712895       17.22115802716182      14.287419999999999
   143   1      40.598466108129998      16.507320158160741      22.492730000000002
   144   1      40.598466108129998      16.507320158160741      18.390070000000001
   145   1      17.042399597622961      12.224271477901691      18.390070000000001
   146   1      17.042399597622961      12.224271477901691      14.287419999999999
   147   1      24.894425643643135      13.651957054602951      14.287419999999999
   148   1      20.968411726205858       12.93810934690277      22.492730000000002
   149   1      20.968411726205858       12.93810934690277      18.390070000000001
   150   1      20.968411726205858       12.93810934690277      14.287419999999999
   151   1       18.11319888641615      38.278640390756216      11.292730000000001
   152   1       18.11319888641615      38.278640390756216      7.1900700000000004
   153   1       18.11319888641615      38.278640390756216      3.0874199999999998
   154   1      14.187184074551681      38.992461265640664      11.292730000000001
   155   1      14.187184074551681      38.992461265640664      7.1900700000000004
   156   1      14.187184074551681      38.992461265640664      3.0874199999999998
   157   1      28.820437772226033      14.365794923604025      22.492730000000002
   158   1      28.820437772226033      14.365794923604025      18.390070000000001
   159   1      28.820437772226033      14.365794923604025      14.287419999999999
   160   1      24.894425643643135      13.651957054602951      22.492730000000002
   161   1       43.81063052901272      21.147171944599098      18.390070000000001
   162   1       43.81063052901272      21.147171944599098      14.287419999999999
   163   1      9.1903833903018874      10.796584112346054      14.287419999999999
   164   1      5.2643712617189911      10.082746243344976      22.492730000000002
   165   1      5.2643712617189911      10.082746243344976      18.390070000000001
   166   1      5.2643712617189911      10.082746243344976      14.287419999999999
   167   1      1.3383689718351963      9.3689065854895155      22.492730000000002
   168   1      22.039213698280619      37.564819515871768      11.292730000000001
   169   1      22.039213698280619      37.564819515871768      7.1900700000000004
   170   1      22.039213698280619      37.564819515871768      3.0874199999999998
   171   1      13.116397307739165      11.510431820046231      22.492730000000002
   172   1      13.116397307739165      11.510431820046231      18.390070000000001
   173   1      13.116397307739165      11.510431820046231      14.287419999999999
   174   1      9.1903833903018874      10.796584112346054      22.492730000000002
   175   1      9.1903833903018874      10.796584112346054      18.390070000000001
   176   1      17.042399597622961      12.224271477901691      22.492730000000002
   177   1      28.106590064525854      18.291808841041306      22.492730000000002
   178   1      28.106590064525854      18.291808841041306      18.390070000000001
   179   1      28.106590064525854      18.291808841041306      14.287419999999999
   180   1      35.958614321691641       19.71948457904346      22.492730000000002
   181   1      35.958614321691641       19.71948457904346      18.390070000000001
   182   1      35.958614321691641       19.71948457904346      14.287419999999999
   183   1      32.032602193108751      19.005646710042381      22.492730000000002
   184   1      39.884618400429822      20.433334075598022      22.492730000000002
   185   1      39.884618400429822      20.433334075598022      18.390070000000001
   186   1      39.884618400429822      20.433334075598022      14.287419999999999
   187   1      25.965228510145089      36.850998640987321      11.292730000000001
   188   1      25.965228510145089      36.850998640987321      7.1900700000000004
   189   1      25.965228510145089      36.850998640987321      3.0874199999999998
   190   1      1.3383689718351963      9.3689065854895155      18.390070000000001
   191   1      1.3383689718351963      9.3689065854895155      14.287419999999999
   192   1       43.81063052901272      21.147171944599098      22.492730000000002
   193   1      12.402547811184606      15.436435898784408      14.287419999999999
   194   1      20.254573857204779      16.864121475485668      22.492730000000002
   195   1      20.254573857204779      16.864121475485668      18.390070000000001
   196   1      20.254573857204779      16.864121475485668      14.287419999999999
   197   1      16.328561728621882      16.150283606484585      22.492730000000002
   198   1      33.817258133874027      35.423356891218418      11.292730000000001
   199   1      33.817258133874027      35.423356891218418      7.1900700000000004
   200   1      33.817258133874027      35.423356891218418      3.0874199999999998
   201   1      29.891243322009558      36.137177766102866      11.292730000000001
   202   1      29.891243322009558      36.137177766102866      7.1900700000000004
   203   1      29.891243322009558      36.137177766102866      3.0874199999999998
   204   1      24.180585985787676      17.577959344486747      22.492730000000002
   205   1      24.180585985787676      17.577959344486747      18.390070000000001
   206   1      24.180585985787676      17.577959344486747      14.287419999999999
   207   1      32.032602193108751      19.005646710042381      18.390070000000001
   208   1      32.032602193108751      19.005646710042381      14.287419999999999
   209   1       4.550533392717913       14.00875837192787      22.492730000000002
   210   1       4.550533392717913       14.00875837192787      18.390070000000001
   211   1       4.550533392717913       14.00875837192787      14.287419999999999
   212   1     0.62451947528063567      13.294910664227693      22.492730000000002
   213   1     0.62451947528063567      13.294910664227693      18.390070000000001
   214   1     0.62451947528063567      13.294910664227693      14.287419999999999
   215   1      8.4765455213008085      14.722596240928947      22.492730000000002
   216   1      8.4765455213008085      14.722596240928947      18.390070000000001
   217   1      8.4765455213008085      14.722596240928947      14.287419999999999
   218   1      37.743272945738497      34.709536016333971      11.292730000000001
   219   1      37.743272945738497      34.709536016333971      7.1900700000000004
   220   1      37.743272945738497      34.709536016333971      3.0874199999999998
   221   1      16.328561728621882      16.150283606484585      18.390070000000001
   222   1      16.328561728621882      16.150283606484585      14.287419999999999
   223   1      12.402547811184606      15.436435898784408      22.492730000000002
   224   1      12.402547811184606      15.436435898784408      18.390070000000001
   225   1      27.392752195524775      22.217820969624199      14.287419999999999
   226   1      31.318764324107669      22.931658838625278      22.492730000000002
   227   1      31.318764324107669      22.931658838625278      18.390070000000001
   228   1      31.318764324107669      22.931658838625278      14.287419999999999
   229   1      39.170780531428747      24.359346204180916      22.492730000000002
   230   1      39.170780531428747      24.359346204180916      18.390070000000001
   231   1      39.170780531428747      24.359346204180916      14.287419999999999
   232   1      35.244766613991466      23.645498496480741      22.492730000000002
   233   1      35.244766613991466      23.645498496480741      18.390070000000001
   234   1      35.244766613991466      23.645498496480741      14.287419999999999
   235   1      41.669287757602959      33.995715141449523      11.292730000000001
   236   1      41.669287757602959      33.995715141449523      7.1900700000000004
   237   1      41.669287757602959      33.995715141449523      3.0874199999999998
   238   1      43.096792660011637      25.073184073181999      22.492730000000002
   239   1      43.096792660011637      25.073184073181999      18.390070000000001
   240   1      43.096792660011637      25.073184073181999      14.287419999999999
   241   1      11.688709942183527      19.362448027367304      18.390070000000001
   242   1      11.688709942183527      19.362448027367304      14.287419999999999
   243   1      15.614722070766422      20.076285896368386      22.492730000000002
   244   1      15.614722070766422      20.076285896368386      18.390070000000001
   245   1      15.614722070766422      20.076285896368386      14.287419999999999
   246   1       1.695328602772926      37.207907289575154      11.292730000000001
   247   1       1.695328602772926      37.207907289575154      7.1900700000000004
   248   1       1.695328602772926      37.207907289575154      3.0874199999999998
   249   1      23.466738278087497       21.50397326192402      22.492730000000002
   250   1      23.466738278087497       21.50397326192402      18.390070000000001
   251   1      23.466738278087497       21.50397326192402      14.287419999999999
   252   1        19.5407261495046      20.790135392922945      22.492730000000002
   253   1        19.5407261495046      20.790135392922945      18.390070000000001
   254   1        19.5407261495046      20.790135392922945      14.287419999999999
   255   1      27.392752195524775      22.217820969624199      22.492730000000002
   256   1      27.392752195524775      22.217820969624199      18.390070000000001
   257   1      38.456940873573281       28.28534849406471      22.492730000000002
   258   1      38.456940873573281       28.28534849406471      18.390070000000001
   259   1      38.456940873573281       28.28534849406471      14.287419999999999
   260   1      42.382954791010562      28.999196201764885      22.492730000000002
   261   1      9.5473483878027636      35.780267328660635      7.1900700000000004
   262   1      9.5473483878027636      35.780267328660635      3.0874199999999998
   263   1      5.6213434146373951      36.494086414690706      11.292730000000001
   264   1      5.6213434146373951      36.494086414690706      7.1900700000000004
   265   1      5.6213434146373951      36.494086414690706      3.0874199999999998
   266   1      7.7626978136006315      18.648610158366228      22.492730000000002
   267   1      7.7626978136006315      18.648610158366228      18.390070000000001
   268   1      7.7626978136006315      18.648610158366228      14.287419999999999
   269   1      3.8366937348624539      17.934760661811666      22.492730000000002
   270   1      3.8366937348624539      17.934760661811666      18.390070000000001
   271   1      3.8366937348624539      17.934760661811666      14.287419999999999
   272   1      11.688709942183527      19.362448027367304      22.492730000000002
   273   1      22.752900409086418      25.429985390506921      22.492730000000002
   274   1      22.752900409086418      25.429985390506921      18.390070000000001
   275   1      22.752900409086418      25.429985390506921      14.287419999999999
   276   1       30.60491661640749      26.857672756062556      22.492730000000002
   277   1       30.60491661640749      26.857672756062556      18.390070000000001
   278   1       30.60491661640749      26.857672756062556      14.287419999999999
   279   1      26.678912537669312      26.143823259507993      22.492730000000002
   280   1      13.473363199667231      35.066446453776187      11.292730000000001
   281   1      13.473363199667231      35.066446453776187      7.1900700000000004
   282   1      13.473363199667231      35.066446453776187      3.0874199999999998
   283   1      9.5473483878027636      35.780267328660635      11.292730000000001
   284   1      34.530928744990383      27.571510625063638      22.492730000000002
   285   1      34.530928744990383      27.571510625063638      18.390070000000001
   286   1      34.530928744990383      27.571510625063638      14.287419999999999
   287   1      42.382954791010562      28.999196201764885      18.390070000000001
   288   1      42.382954791010562      28.999196201764885      14.287419999999999
   289   1      10.974872073182448      23.288460155950201      14.287419999999999
   290   1      7.0488599445995526      22.574622286949126      22.492730000000002
   291   1      7.0488599445995526      22.574622286949126      18.390070000000001
   292   1      7.0488599445995526      22.574622286949126      14.287419999999999
   293   1      14.900874363066245       24.00229981380566      22.492730000000002
   294   1      14.900874363066245       24.00229981380566      18.390070000000001
   295   1      14.900874363066245       24.00229981380566      14.287419999999999
   296   1      10.974872073182448      23.288460155950201      22.492730000000002
   297   1      17.399378011531702       34.35262557889174      11.292730000000001
   298   1      17.399378011531702       34.35262557889174      7.1900700000000004
   299   1      17.399378011531702       34.35262557889174      3.0874199999999998
   300   1      18.826888280503525      24.716147521505842      22.492730000000002
   301   1      18.826888280503525      24.716147521505842      18.390070000000001
   302   1      18.826888280503525      24.716147521505842      14.287419999999999
   303   1      26.678912537669312      26.143823259507993      18.390070000000001
   304   1      26.678912537669312      26.143823259507993      14.287419999999999
   305   1      29.891076958552034       30.78367504594635      18.390070000000001
   306   1      37.743093165873105      32.211362411501987      22.492730000000002
   307   1      37.743093165873105      32.211362411501987      18.390070000000001
   308   1      37.743093165873105      32.211362411501987      14.287419999999999
   309   1      41.669105294456003      32.925200280503063      22.492730000000002
   310   1      41.669105294456003      32.925200280503063      18.390070000000001
   311   1      41.669105294456003      32.925200280503063      14.287419999999999
   312   1      25.251407635260637      32.924983829122844      7.1900700000000004
   313   1      25.251407635260637      32.924983829122844      3.0874199999999998
   314   1      21.325392823396172      33.638804704007292      11.292730000000001
   315   1      21.325392823396172      33.638804704007292      7.1900700000000004
   316   1      21.325392823396172      33.638804704007292      3.0874199999999998
   317   1      3.1228460271622751      21.860774579248947      22.492730000000002
   318   1      3.1228460271622751      21.860774579248947      18.390070000000001
   319   1      3.1228460271622751      21.860774579248947      14.287419999999999
   320   1      10.974872073182448      23.288460155950201      18.390070000000001
   321   1      14.187036494065167      27.928311942388557      18.390070000000001
   322   1      22.039062540085343      29.355997519089815      22.492730000000002
   323   1      22.039062540085343      29.355997519089815      18.390070000000001
   324   1      22.039062540085343      29.355997519089815      14.287419999999999
   325   1      29.891076958552034       30.78367504594635      14.287419999999999
   326   1      25.965064829969137      30.069837176945274      22.492730000000002
   327   1      25.965064829969137      30.069837176945274      18.390070000000001
   328   1      25.965064829969137      30.069837176945274      14.287419999999999
   329   1       29.17742244712511      32.211162954238389      11.292730000000001
   330   1       29.17742244712511      32.211162954238389      7.1900700000000004
   331   1       29.17742244712511      32.211162954238389      3.0874199999999998
   332   1      25.251407635260637      32.924983829122844      11.292730000000001
   333   1      33.817090875989308      31.497522753646528      22.492730000000002
   334   1      33.817090875989308      31.497522753646528      18.390070000000001
   335   1      33.817090875989308      31.497522753646528      14.287419999999999
   336   1      29.891076958552034       30.78367504594635      22.492730000000002
   337   1      2.4090081581611975       25.78678670783184      18.390070000000001
   338   1      2.4090081581611975       25.78678670783184      14.287419999999999
   339   1      6.3350202867440935      26.500624576832919      22.492730000000002
   340   1      6.3350202867440935      26.500624576832919      18.390070000000001
   341   1      6.3350202867440935      26.500624576832919      14.287419999999999
   342   1      14.187036494065167      27.928311942388557      14.287419999999999
   343   1      10.261024365482269      27.214474073387478      22.492730000000002
   344   1      10.261024365482269      27.214474073387478      18.390070000000001
   345   1      10.261024365482269      27.214474073387478      14.287419999999999
   346   1       33.10343725898958      31.497342079353942      11.292730000000001
   347   1       33.10343725898958      31.497342079353942      7.1900700000000004
   348   1       33.10343725898958      31.497342079353942      3.0874199999999998
   349   1      18.113048622648062      28.642149811389636      22.492730000000002
   350   1      18.113048622648062      28.642149811389636      18.390070000000001
   351   1      18.113048622648062      28.642149811389636      14.287419999999999
   352   1      14.187036494065167      27.928311942388557      22.492730000000002
   353   1      29.177239089550955       34.70968717452925      22.492730000000002
   354   1      29.177239089550955       34.70968717452925      18.390070000000001
   355   1      29.177239089550955       34.70968717452925      14.287419999999999
   356   1       37.02925529687203      36.137374540084885      22.492730000000002
   357   1       37.02925529687203      36.137374540084885      18.390070000000001