(written by ASE)

14808 atoms
3 atom types

0.0       99.11896046696134  xlo xhi
0.0       99.11896046696134  ylo yhi
0.0                      50  zlo zhi

Masses

     1       137.3269999646734 # Ba
     2      15.998999995884349 # O
     3      47.866999987686484 # Ti

Atoms # atomic

     1   1      1.8875975316081151      55.061632183498403      11.292730000000001
     2   1      1.8875975316081151      55.061632183498403      7.1900700000000004
     3   1      1.8875975316081151      55.061632183498403      3.0874199999999998
     4   1      4.4579439288648048      52.009345836756083      11.292730000000001
     5   1      4.4579439288648048      52.009345836756083      7.1900700000000004
     6   1      4.4579439288648048      52.009345836756083      3.0874199999999998
     7   1      2.4497194987287889       4.458023238078507      18.390070000000001
     8   1      2.4497194987287889       4.458023238078507      14.287419999999999
     9   1      5.5020855572696465        1.88777466893821      22.492730000000002
    10   1      5.5020855572696465        1.88777466893821      18.390070000000001
    11   1      5.5020855572696465        1.88777466893821      14.287419999999999
    12   1      95.705218084141308      92.331635619648026      11.292730000000001
    13   1      95.705218084141308      92.331635619648026      7.1900700000000004
    14   1      95.705218084141308      92.331635619648026      3.0874199999999998
    15   1      63.011804355381287      57.794611584189703      18.390070000000001
    16   1      63.011804355381287      57.794611584189703      14.287419999999999
    17   1      87.512246591997595      95.865868357233424      11.292730000000001
    18   1      87.512246591997595      95.865868357233424      7.1900700000000004
    19   1      87.512246591997595      95.865868357233424      3.0874199999999998
    20   1      84.941900194740896      98.918154703975745      11.292730000000001
    21   1      84.941900194740896      98.918154703975745      7.1900700000000004
    22   1      84.941900194740896      98.918154703975745      3.0874199999999998
    23   1      98.275564481397993      89.279349272905705      11.292730000000001
    24   1      98.275564481397993      89.279349272905705      7.1900700000000004
    25   1      98.275564481397993      89.279349272905705      3.0874199999999998
    26   1      2.4497194987287889       4.458023238078507      22.492730000000002
    27   1      98.757504430883614      94.901982016904711      11.292730000000001
    28   1      98.757504430883614      94.901982016904711      7.1900700000000004
    29   1      98.757504430883614      94.901982016904711      3.0874199999999998
    30   1      96.187158033626929      97.954268363647031      11.292730000000001
    31   1      96.187158033626929      97.954268363647031      7.1900700000000004
    32   1      90.564525289627937      98.436208313132667      3.0874199999999998
    33   1      92.652939386510965      89.761295663748783      7.1900700000000004
    34   1      92.652939386510965      89.761295663748783      3.0874199999999998
    35   1      8.0723341264099453      4.9401407274790685      22.492730000000002
    36   1      8.0723341264099453      4.9401407274790685      18.390070000000001
    37   1      8.0723341264099453      4.9401407274790685      14.287419999999999
    38   1      5.0199680678690859      7.5103892966193655      22.492730000000002
    39   1      5.0199680678690859      7.5103892966193655      18.390070000000001
    40   1       12.16898312063487      42.852486796529135      11.292730000000001
    41   1       12.16898312063487      42.852486796529135      7.1900700000000004
    42   1       12.16898312063487      42.852486796529135      3.0874199999999998
    43   1      48.635766190356684      5.7431183352476776      11.292730000000001
    44   1      48.635766190356684      5.7431183352476776      7.1900700000000004
    45   1      48.635766190356684      5.7431183352476776      3.0874199999999998
    46   1      14.739329517891557      39.800200449786821      11.292730000000001
    47   1      14.739329517891557      39.800200449786821      7.1900700000000004
    48   1      14.739329517891557      39.800200449786821      3.0874199999999998
    49   1      95.223285783767651      86.709009317006462      11.292730000000001
    50   1      95.223285783767651      86.709009317006462      7.1900700000000004
    51   1      95.223285783767651      86.709009317006462      3.0874199999999998
    52   1      46.065419793099991      8.7954046819899929      11.292730000000001
    53   1      46.065419793099991      8.7954046819899929      7.1900700000000004
    54   1      46.065419793099991      8.7954046819899929      3.0874199999999998
    55   1      19.880022312404936       33.69562775630218      11.292730000000001
    56   1      19.880022312404936       33.69562775630218      7.1900700000000004
    57   1      19.880022312404936       33.69562775630218      3.0874199999999998
    58   1      17.309675915148247      36.747914103044501      11.292730000000001
    59   1      17.309675915148247      36.747914103044501      7.1900700000000004
    60   1      17.309675915148247      36.747914103044501      3.0874199999999998
    61   1      1.9676020093282272      10.080637865759662      22.492730000000002
    62   1      1.9676020093282272      10.080637865759662      18.390070000000001
    63   1      1.9676020093282272      10.080637865759662      14.287419999999999
    64   1      92.652939386510965      89.761295663748783      11.292730000000001
    65   1      40.924726998586614      14.899977375474631      3.0874199999999998
    66   1      13.694948754091101      5.4222582168796274      22.492730000000002
    67   1      13.694948754091101      5.4222582168796274      18.390070000000001
    68   1      13.694948754091101      5.4222582168796274      14.287419999999999
    69   1      81.889613847998575       96.34780830671906      11.292730000000001
    70   1      81.889613847998575       96.34780830671906      7.1900700000000004
    71   1      81.889613847998575       96.34780830671906      3.0874199999999998
    72   1      16.747314812631959      2.8520096477393309      22.492730000000002
    73   1      16.747314812631959      2.8520096477393309      18.390070000000001
    74   1      16.747314812631959      2.8520096477393309      14.287419999999999
    75   1      19.799687312530274     0.28175342948705273      22.492730000000002
    76   1      19.799687312530274     0.28175342948705273      18.390070000000001
    77   1      19.799687312530274     0.28175342948705273      14.287419999999999
    78   1      97.793632181024336      83.656722970264155      11.292730000000001
    79   1      97.793632181024336      83.656722970264155      7.1900700000000004
    80   1      97.793632181024336      83.656722970264155      3.0874199999999998
    81   1      7.5902166370093838      10.562755355160224      18.390070000000001
    82   1      7.5902166370093838      10.562755355160224      14.287419999999999
    83   1       87.03030664251196      90.243235613234418      11.292730000000001
    84   1       87.03030664251196      90.243235613234418      7.1900700000000004
    85   1       87.03030664251196      90.243235613234418      3.0874199999999998
    86   1      84.459960245255274      93.295521959976739      11.292730000000001
    87   1      84.459960245255274      93.295521959976739      7.1900700000000004
    88   1      84.459960245255274      93.295521959976739      3.0874199999999998
    89   1      22.450368709661625      30.643341409559866      11.292730000000001
    90   1      22.450368709661625      30.643341409559866      7.1900700000000004
    91   1      22.450368709661625      30.643341409559866      3.0874199999999998
    92   1      43.495073395843306      11.847691028732312      11.292730000000001
    93   1      43.495073395843306      11.847691028732312      7.1900700000000004
    94   1      43.495073395843306      11.847691028732312      3.0874199999999998
    95   1      40.924726998586614      14.899977375474631      11.292730000000001
    96   1      40.924726998586614      14.899977375474631      7.1900700000000004
    97   1      89.600653039768645      87.190949266492098      3.0874199999999998
    98   1      10.642582695550242       7.992506786019927      22.492730000000002
    99   1      10.642582695550242       7.992506786019927      18.390070000000001
   100   1      10.642582695550242       7.992506786019927      14.287419999999999
   101   1      25.020715106918313      27.591055062817546      11.292730000000001
   102   1      25.020715106918313      27.591055062817546      7.1900700000000004
   103   1      25.020715106918313      27.591055062817546      3.0874199999999998
   104   1      38.354380601329929      17.952263722216948      11.292730000000001
   105   1      38.354380601329929      17.952263722216948      7.1900700000000004
   106   1      38.354380601329929      17.952263722216948      3.0874199999999998
   107   1      30.161401460074234      21.486490018444893      11.292730000000001
   108   1      30.161401460074234      21.486490018444893      7.1900700000000004
   109   1      30.161401460074234      21.486490018444893      3.0874199999999998
   110   1      27.591061504175002      24.538768716075229      11.292730000000001
   111   1      27.591061504175002      24.538768716075229      7.1900700000000004
   112   1      7.5902166370093838      10.562755355160224      22.492730000000002
   113   1       92.17099943702533      84.138662919749777      3.0874199999999998
   114   1      1.4854845199276661       15.70325249344082      22.492730000000002
   115   1      1.4854845199276661       15.70325249344082      18.390070000000001
   116   1      1.4854845199276661       15.70325249344082      14.287419999999999
   117   1      27.591061504175002      24.538768716075229      3.0874199999999998
   118   1      32.731747857330923      18.434203671702576      11.292730000000001
   119   1      32.731747857330923      18.434203671702576      7.1900700000000004
   120   1      32.731747857330923      18.434203671702576      3.0874199999999998
   121   1      35.784034204073237      21.004550068959265      11.292730000000001
   122   1      35.784034204073237      21.004550068959265      7.1900700000000004
   123   1      35.784034204073237      21.004550068959265      3.0874199999999998
   124   1      4.5378505784685252      13.133003924300521      22.492730000000002
   125   1      4.5378505784685252      13.133003924300521      18.390070000000001
   126   1      4.5378505784685252      13.133003924300521      14.287419999999999
   127   1      89.600653039768645      87.190949266492098      11.292730000000001
   128   1      89.600653039768645      87.190949266492098      7.1900700000000004
   129   1      40.442787049100986      9.2773446314756232      3.0874199999999998
   130   1      19.317563381772256      5.9043757062801907      22.492730000000002
   131   1      19.317563381772256      5.9043757062801907      18.390070000000001
   132   1      19.317563381772256      5.9043757062801907      14.287419999999999
   133   1      97.311685790181258      78.034097875377128      11.292730000000001
   134   1      97.311685790181258      78.034097875377128      7.1900700000000004
   135   1      97.311685790181258      78.034097875377128      3.0874199999999998
   136   1      94.741345834282015       81.08637657300747      11.292730000000001
   137   1      94.741345834282015       81.08637657300747      7.1900700000000004
   138   1      94.741345834282015       81.08637657300747      3.0874199999999998
   139   1       25.42230194021143     0.76387091888761516      22.492730000000002
   140   1       25.42230194021143     0.76387091888761516      18.390070000000001
   141   1       25.42230194021143     0.76387091888761516      14.287419999999999
   142   1      22.369929440313115      3.3341271371398915      22.492730000000002
   143   1       92.17099943702533      84.138662919749777      11.292730000000001
   144   1       92.17099943702533      84.138662919749777      7.1900700000000004
   145   1      76.266981103999569      96.829748256204681      11.292730000000001
   146   1      76.266981103999569      96.829748256204681      7.1900700000000004
   147   1      76.266981103999569      96.829748256204681      3.0874199999999998
   148   1      22.369929440313115      3.3341271371398915      18.390070000000001
   149   1      22.369929440313115      3.3341271371398915      14.287419999999999
   150   1      35.302094254587608      15.381917324960259      11.292730000000001
   151   1      35.302094254587608      15.381917324960259      7.1900700000000004
   152   1      35.302094254587608      15.381917324960259      3.0874199999999998
   153   1      33.213687806816552      24.056836415701582      11.292730000000001
   154   1      33.213687806816552      24.056836415701582      7.1900700000000004
   155   1      33.213687806816552      24.056836415701582      3.0874199999999998
   156   1      30.643347850917319      27.109115113331917      11.292730000000001
   157   1      30.643347850917319      27.109115113331917      7.1900700000000004
   158   1      30.643347850917319      27.109115113331917      3.0874199999999998
   159   1      40.442787049100986      9.2773446314756232      11.292730000000001
   160   1      40.442787049100986      9.2773446314756232      7.1900700000000004
   161   1      7.1080991476088231       16.18536998284138      22.492730000000002
   162   1      7.1080991476088231       16.18536998284138      18.390070000000001
   163   1      7.1080991476088231       16.18536998284138      14.287419999999999
   164   1      81.407673898512954      90.725175562720054      11.292730000000001
   165   1      81.407673898512954      90.725175562720054      7.1900700000000004
   166   1      81.407673898512954      90.725175562720054      3.0874199999999998
   167   1      78.837327501256254      93.777461909462374      11.292730000000001
   168   1      78.837327501256254      93.777461909462374      7.1900700000000004
   169   1      78.837327501256254      93.777461909462374      3.0874199999999998
   170   1      13.212831264690537      11.044872844560784      22.492730000000002
   171   1      13.212831264690537      11.044872844560784      18.390070000000001
   172   1      13.212831264690537      11.044872844560784      14.287419999999999
   173   1      10.160465206149681      13.615121413701083      22.492730000000002
   174   1      16.265197323231398      8.4746242754204886      22.492730000000002
   175   1      16.265197323231398      8.4746242754204886      18.390070000000001
   176   1      16.265197323231398      8.4746242754204886      14.287419999999999
   177   1      4.0557330890679637      18.755618551981676      18.390070000000001
   178   1      4.0557330890679637      18.755618551981676      14.287419999999999
   179   1      83.978020295769639      87.672889215977733      11.292730000000001
   180   1      83.978020295769639      87.672889215977733      7.1900700000000004
   181   1      83.978020295769639      87.672889215977733      3.0874199999999998
   182   1      10.160465206149681      13.615121413701083      18.390070000000001
   183   1      10.160465206149681      13.615121413701083      14.287419999999999
   184   1        37.8724406518443      12.329630978217942      11.292730000000001
   185   1        37.8724406518443      12.329630978217942      7.1900700000000004
   186   1        37.8724406518443      12.329630978217942      3.0874199999999998
   187   1       28.07300145366063      30.161401460074234      11.292730000000001
   188   1       28.07300145366063      30.161401460074234      7.1900700000000004
   189   1       28.07300145366063      30.161401460074234      3.0874199999999998
   190   1      43.013133446357678      6.2250582847333051      11.292730000000001
   191   1      43.013133446357678      6.2250582847333051      7.1900700000000004
   192   1      43.013133446357678      6.2250582847333051      3.0874199999999998
   193   1      86.548366693026324      84.620602869235412      11.292730000000001
   194   1      86.548366693026324      84.620602869235412      7.1900700000000004
   195   1      86.548366693026324      84.620602869235412      3.0874199999999998
   196   1      1.0033670305271047      21.325867121121973      22.492730000000002
   197   1      1.0033670305271047      21.325867121121973      18.390070000000001
   198   1      1.0033670305271047      21.325867121121973      14.287419999999999
   199   1      45.583479843614363      3.1727719379909884      11.292730000000001
   200   1      45.583479843614363      3.1727719379909884      7.1900700000000004
   201   1      45.583479843614363      3.1727719379909884      3.0874199999999998
   202   1      25.502655056403942      33.213687806816552      11.292730000000001
   203   1      25.502655056403942      33.213687806816552      7.1900700000000004
   204   1      25.502655056403942      33.213687806816552      3.0874199999999998
   205   1      1.4056575821224915      49.438999439499398      7.1900700000000004
   206   1      1.4056575821224915      49.438999439499398      3.0874199999999998
   207   1      48.153826240871055     0.12048559124867246      11.292730000000001
   208   1      4.0557330890679637      18.755618551981676      22.492730000000002
   209   1      24.940178009453412      6.3864931956807496      18.390070000000001
   210   1      24.940178009453412      6.3864931956807496      14.287419999999999
   211   1      48.153826240871055     0.12048559124867246      7.1900700000000004
   212   1      48.153826240871055     0.12048559124867246      3.0874199999999998
   213   1      22.932308659147253      36.265974153558872      11.292730000000001
   214   1      22.932308659147253      36.265974153558872      7.1900700000000004
   215   1      22.932308659147253      36.265974153558872      3.0874199999999998
   216   1      20.361962261890564      39.318260500301186      11.292730000000001
   217   1      20.361962261890564      39.318260500301186      7.1900700000000004
   218   1      20.361962261890564      39.318260500301186      3.0874199999999998
   219   1      3.9760039793791768      46.386713092757084      11.292730000000001
   220   1      3.9760039793791768      46.386713092757084      7.1900700000000004
   221   1      3.9760039793791768      46.386713092757084      3.0874199999999998
   222   1      31.044924217004567      1.2459948496456308      22.492730000000002
   223   1      31.044924217004567      1.2459948496456308      18.390070000000001
   224   1      31.044924217004567      1.2459948496456308      14.287419999999999
   225   1      94.259399443438937      75.463751478120443      11.292730000000001
   226   1      94.259399443438937      75.463751478120443      7.1900700000000004
   227   1      94.259399443438937      75.463751478120443      3.0874199999999998
   228   1      21.887811950912557      8.9567417648210483      22.492730000000002
   229   1      21.887811950912557      8.9567417648210483      18.390070000000001
   230   1      21.887811950912557      8.9567417648210483      14.287419999999999
   231   1      91.689059487539694      78.516030175750785      11.292730000000001
   232   1      91.689059487539694      78.516030175750785      7.1900700000000004
   233   1      91.689059487539694      78.516030175750785      3.0874199999999998
   234   1      89.118713090283009      81.568316522493092      11.292730000000001
   235   1      89.118713090283009      81.568316522493092      7.1900700000000004
   236   1      89.118713090283009      81.568316522493092      3.0874199999999998
   237   1      27.992558158463709      3.8162434187859313      22.492730000000002
   238   1      27.992558158463709      3.8162434187859313      18.390070000000001
   239   1      27.992558158463709      3.8162434187859313      14.287419999999999
   240   1      24.940178009453412      6.3864931956807496      22.492730000000002
   241   1      12.730713775289978      16.667487472241941      14.287419999999999
   242   1      96.829745840695622      72.411465131378122      11.292730000000001
   243   1      96.829745840695622      72.411465131378122      7.1900700000000004
   244   1      96.829745840695622      72.411465131378122      3.0874199999999998
   245   1      18.835445892371695      11.526990333961347      22.492730000000002
   246   1      18.835445892371695      11.526990333961347      18.390070000000001
   247   1      1.4056575821224915      49.438999439499398      11.292730000000001
   248   1      6.5463503766358668      43.334426746014771      11.292730000000001
   249   1      6.5463503766358668      43.334426746014771      7.1900700000000004
   250   1      6.5463503766358668      43.334426746014771      3.0874199999999998
   251   1      17.791615864633876      42.370546847043506      11.292730000000001
   252   1      17.791615864633876      42.370546847043506      7.1900700000000004
   253   1      17.791615864633876      42.370546847043506      3.0874199999999998
   254   1      11.687043171149243      37.229854052530136      7.1900700000000004
   255   1      11.687043171149243      37.229854052530136      3.0874199999999998
   256   1      18.835445892371695      11.526990333961347      14.287419999999999
   257   1      9.6783477167491192      19.237736041382238      18.390070000000001
   258   1      9.6783477167491192      19.237736041382238      14.287419999999999
   259   1      15.783079833830836      14.097238903101642      22.492730000000002
   260   1      9.1166967738925564       40.28214039927245      11.292730000000001
   261   1      9.1166967738925564       40.28214039927245      7.1900700000000004
   262   1      9.1166967738925564       40.28214039927245      3.0874199999999998
   263   1      15.221269467377187       45.42283319378582      11.292730000000001
   264   1      15.221269467377187       45.42283319378582      7.1900700000000004
   265   1      15.221269467377187       45.42283319378582      3.0874199999999998
   266   1      14.257389568405934      34.177567705787816      11.292730000000001
   267   1      14.257389568405934      34.177567705787816      7.1900700000000004
   268   1      14.257389568405934      34.177567705787816      3.0874199999999998
   269   1      15.783079833830836      14.097238903101642      18.390070000000001
   270   1      15.783079833830836      14.097238903101642      14.287419999999999
   271   1      12.730713775289978      16.667487472241941      22.492730000000002
   272   1      12.730713775289978      16.667487472241941      18.390070000000001
   273   1      0.5212495411265462      26.948481748803133      22.492730000000002
   274   1      0.5212495411265462      26.948481748803133      18.390070000000001
   275   1      0.5212495411265462      26.948481748803133      14.287419999999999
   276   1      75.785041154513948      91.207115512205689      11.292730000000001
   277   1      75.785041154513948      91.207115512205689      7.1900700000000004
   278   1      75.785041154513948      91.207115512205689      3.0874199999999998
   279   1      6.6259816582082625      21.807984610522539      22.492730000000002
   280   1      6.6259816582082625      21.807984610522539      18.390070000000001
   281   1      6.6259816582082625      21.807984610522539      14.287419999999999
   282   1      73.214694757257263      94.259401858947996      11.292730000000001
   283   1      73.214694757257263      94.259401858947996      7.1900700000000004
   284   1      73.214694757257263      94.259401858947996      3.0874199999999998
   285   1      70.644348360000578      97.311688205690317      11.292730000000001
   286   1      70.644348360000578      97.311688205690317      7.1900700000000004
   287   1      70.644348360000578      97.311688205690317      3.0874199999999998
   288   1      9.6783477167491192      19.237736041382238      22.492730000000002
   289   1      78.355387551770647      88.154829165463369      7.1900700000000004
   290   1      78.355387551770647      88.154829165463369      3.0874199999999998
   291   1      3.5736155996674031      24.378233179662832      22.492730000000002
   292   1      3.5736155996674031      24.378233179662832      18.390070000000001
   293   1      11.687043171149243      37.229854052530136      11.292730000000001
   294   1      12.650923070120497      48.475119540528141      11.292730000000001
   295   1      12.650923070120497      48.475119540528141      7.1900700000000004
   296   1      12.650923070120497      48.475119540528141      3.0874199999999998
   297   1      10.080576672863808      51.527405887270461      11.292730000000001
   298   1      10.080576672863808      51.527405887270461      7.1900700000000004
   299   1      10.080576672863808      51.527405887270461      3.0874199999999998
   300   1      16.827735965662622      31.125281359045498      11.292730000000001
   301   1      16.827735965662622      31.125281359045498      7.1900700000000004
   302   1      16.827735965662622      31.125281359045498      3.0874199999999998
   303   1         21.968428760176      25.020708665560861      7.1900700000000004
   304   1      3.5736155996674031      24.378233179662832      14.287419999999999
   305   1      30.562800286246549      6.8686171264387683      22.492730000000002
   306   1      30.562800286246549      6.8686171264387683      18.390070000000001
   307   1      30.562800286246549      6.8686171264387683      14.287419999999999
   308   1      83.496080346284018      82.050256471978727      11.292730000000001
   309   1      83.496080346284018      82.050256471978727      7.1900700000000004
   310   1      83.496080346284018      82.050256471978727      3.0874199999999998
   311   1      80.925733949027332      85.102542818721048      11.292730000000001
   312   1      36.667538844685723      1.7281123390461928      18.390070000000001
   313   1      36.667538844685723      1.7281123390461928      14.287419999999999
   314   1      33.615172786144868      4.2983609081864902      22.492730000000002
   315   1      33.615172786144868      4.2983609081864902      18.390070000000001
   316   1      33.615172786144868      4.2983609081864902      14.287419999999999
   317   1      36.667538844685723      1.7281123390461928      22.492730000000002
   318   1      80.925733949027332      85.102542818721048      7.1900700000000004
   319   1      80.925733949027332      85.102542818721048      3.0874199999999998
   320   1      78.355387551770647      88.154829165463369      11.292730000000001
   321   1      27.510434227705691      9.4388656955790662      18.390070000000001
   322   1      27.510434227705691      9.4388656955790662      14.287419999999999
   323   1      24.458068169164832      12.009114264719367      22.492730000000002
   324   1      86.066426743540703      78.997970125236407      11.292730000000001
   325   1      86.066426743540703      78.997970125236407      7.1900700000000004
   326   1      86.066426743540703      78.997970125236407      3.0874199999999998
   327   1         21.968428760176      25.020708665560861      3.0874199999999998
   328   1      19.398082362919311      28.072995012303181      11.292730000000001
   329   1      19.398082362919311      28.072995012303181      7.1900700000000004
   330   1      19.398082362919311      28.072995012303181      3.0874199999999998
   331   1       7.510230275607122      54.579692234012775      11.292730000000001
   332   1       7.510230275607122      54.579692234012775      7.1900700000000004
   333   1       7.510230275607122      54.579692234012775      3.0874199999999998
   334   1      24.538775157432688      21.968422318818543      11.292730000000001
   335   1      24.538775157432688      21.968422318818543      7.1900700000000004
   336   1      24.538775157432688      21.968422318818543      3.0874199999999998
   337   1      88.636773140797388        75.9456837784941      7.1900700000000004
   338   1      88.636773140797388        75.9456837784941      3.0874199999999998
   339   1      24.458068169164832      12.009114264719367      18.390070000000001
   340   1      24.458068169164832      12.009114264719367      14.287419999999999
   341   1      21.405694461511995      14.579356392502204      22.492730000000002
   342   1      21.405694461511995      14.579356392502204      18.390070000000001
   343   1         21.968428760176      25.020708665560861      11.292730000000001
   344   1      4.9398838783504324      57.631978580755096      11.292730000000001
   345   1      4.9398838783504324      57.631978580755096      7.1900700000000004
   346   1      4.9398838783504324      57.631978580755096      3.0874199999999998
   347   1      27.109115113331921      18.916143621188208      11.292730000000001
   348   1      27.109115113331921      18.916143621188208      7.1900700000000004
   349   1      27.109115113331921      18.916143621188208      3.0874199999999998
   350   1      32.249807907845295      12.811570927703574      7.1900700000000004
   351   1      21.405694461511995      14.579356392502204      14.287419999999999
   352   1      27.510434227705691      9.4388656955790662      22.492730000000002
   353   1      34.820154305101987      9.7592845809612569      7.1900700000000004
   354   1      34.820154305101987      9.7592845809612569      3.0874199999999998
   355   1      15.300962344430278        19.7198535307828      22.492730000000002
   356   1      15.300962344430278        19.7198535307828      18.390070000000001
   357   1      15.300962344430278        19.7198535307828      14.287419999999999