(written by ASE)

4056 atoms
3 atom types

0.0      51.874928236300001  xlo xhi
0.0      51.874928236300001  ylo yhi
0.0                      50  zlo zhi

Masses

     1       137.3269999646734 # Ba
     2      15.998999995884349 # O
     3      47.866999987686484 # Ti

Atoms # atomic

     1   1      51.798190000000012      44.277860000000011      3.0874199999999998
     2   1      13.736113076923079      11.127014615384617      7.1900700000000004
     3   1      13.736113076923079      11.127014615384617      3.0874199999999998
     4   1      12.201351538461539      14.810442307692311      11.292730000000001
     5   1      12.201351538461539      14.810442307692311      7.1900700000000004
     6   1      12.201351538461539      14.810442307692311      3.0874199999999998
     7   1      8.3644600000000011      1.9184100000000002      22.492730000000002
     8   1      8.3644600000000011      1.9184100000000002      18.390070000000001
     9   1      48.114762307692317      42.743098461538466      11.292730000000001
    10   1      48.114762307692317      42.743098461538466      7.1900700000000004
    11   1      48.114762307692317      42.743098461538466      3.0874199999999998
    12   1      46.580000769230772      46.426526153846162      11.292730000000001
    13   1      46.580000769230772      46.426526153846162      7.1900700000000004
    14   1       11.12720153846154      39.673522307692316      22.492730000000002
    15   1       11.12720153846154      39.673522307692316      18.390070000000001
    16   1       11.12720153846154      39.673522307692316      14.287419999999999
    17   1      4.6810400000000003      3.4531900000000006      22.492730000000002
    18   1      4.6810400000000003      3.4531900000000006      18.390070000000001
    19   1      4.6810400000000003      3.4531900000000006      14.287419999999999
    20   1     0.99762000000000006      4.9879700000000007      22.492730000000002
    21   1      49.649523846153855       39.05967076923077      11.292730000000001
    22   1      49.649523846153855       39.05967076923077      7.1900700000000004
    23   1      49.649523846153855       39.05967076923077      3.0874199999999998
    24   1      12.047880000000003     0.38363000000000047      22.492730000000002
    25   1      12.047880000000003     0.38363000000000047      18.390070000000001
    26   1      12.047880000000003     0.38363000000000047      14.287419999999999
    27   1      50.263428461538467        47.9612876923077      11.292730000000001
    28   1      50.263428461538467        47.9612876923077      7.1900700000000004
    29   1      50.263428461538467        47.9612876923077      3.0874199999999998
    30   1      48.728666923076929      51.644715384615395      11.292730000000001
    31   1      48.728666923076929      51.644715384615395      7.1900700000000004
    32   1      51.798190000000012      44.277860000000011      7.1900700000000004
    33   1      42.896573076923083      44.891764615384623      11.292730000000001
    34   1      42.896573076923083      44.891764615384623      7.1900700000000004
    35   1      42.896573076923083      44.891764615384623      3.0874199999999998
    36   1      20.949496153846159     0.99749923076923164      22.492730000000002
    37   1      20.949496153846159     0.99749923076923164      18.390070000000001
    38   1      20.949496153846159     0.99749923076923164      14.287419999999999
    39   1      9.1318284615384631      22.177297692307693      11.292730000000001
    40   1      9.1318284615384631      22.177297692307693      7.1900700000000004
    41   1      9.1318284615384631      22.177297692307693      3.0874199999999998
    42   1      7.5970669230769232      25.860725384615389      11.292730000000001
    43   1      18.340393846153848    0.076740769230768849      11.292730000000001
    44   1      18.340393846153848    0.076740769230768849      7.1900700000000004
    45   1      18.340393846153848    0.076740769230768849      3.0874199999999998
    46   1     0.99762000000000006      4.9879700000000007      18.390070000000001
    47   1     0.99762000000000006      4.9879700000000007      14.287419999999999
    48   1      41.361811538461545      48.575192307692319      11.292730000000001
    49   1      9.8992400000000025      5.6018300000000014      18.390070000000001
    50   1      9.8992400000000025      5.6018300000000014      14.287419999999999
    51   1     0.84411615384615357      31.692819230769238      11.292730000000001
    52   1     0.84411615384615357      31.692819230769238      7.1900700000000004
    53   1     0.84411615384615357      31.692819230769238      3.0874199999999998
    54   1      7.5970669230769232      25.860725384615389      7.1900700000000004
    55   1      7.5970669230769232      25.860725384615389      3.0874199999999998
    56   1      6.0623053846153852      29.544153076923081      11.292730000000001
    57   1      6.0623053846153852      29.544153076923081      7.1900700000000004
    58   1      6.0623053846153852      29.544153076923081      3.0874199999999998
    59   1      3.9136392307692311      24.325963846153851      11.292730000000001
    60   1      3.9136392307692311      24.325963846153851      7.1900700000000004
    61   1      3.9136392307692311      24.325963846153851      3.0874199999999998
    62   1      17.266076153846157      2.5322792307692317      22.492730000000002
    63   1      17.266076153846157      2.5322792307692317      18.390070000000001
    64   1      17.266076153846157      2.5322792307692317      14.287419999999999
    65   1      6.2158200000000017       7.136610000000001      22.492730000000002
    66   1      6.2158200000000017       7.136610000000001      18.390070000000001
    67   1      6.2158200000000017       7.136610000000001      14.287419999999999
    68   1      47.500857692307704      33.841481538461551      11.292730000000001
    69   1      47.500857692307704      33.841481538461551      7.1900700000000004
    70   1      47.500857692307704      33.841481538461551      3.0874199999999998
    71   1      45.966096153846166      37.524909230769239      11.292730000000001
    72   1      45.966096153846166      37.524909230769239      7.1900700000000004
    73   1      45.966096153846166      37.524909230769239      3.0874199999999998
    74   1      44.431334615384628      41.208336923076935      11.292730000000001
    75   1      44.431334615384628      41.208336923076935      7.1900700000000004
    76   1      44.431334615384628      41.208336923076935      3.0874199999999998
    77   1      13.582660000000002      4.0670500000000009      22.492730000000002
    78   1      13.582660000000002      4.0670500000000009      18.390070000000001
    79   1      13.582660000000002      4.0670500000000009      14.287419999999999
    80   1      9.8992400000000025      5.6018300000000014      22.492730000000002
    81   1      33.534536153846162    0.076579230769232134      14.287419999999999
    82   1      49.035619230769242      30.158053846153855      11.292730000000001
    83   1      49.035619230769242      30.158053846153855      7.1900700000000004
    84   1      49.035619230769242      30.158053846153855      3.0874199999999998
    85   1      2.5324000000000004      8.6713900000000006      22.492730000000002
    86   1      2.5324000000000004      8.6713900000000006      18.390070000000001
    87   1      2.3788776923076931      28.009391538461543      11.292730000000001
    88   1      2.3788776923076931      28.009391538461543      7.1900700000000004
    89   1      2.3788776923076931      28.009391538461543      3.0874199999999998
    90   1      4.5275438461538453      33.227580769230777      11.292730000000001
    91   1      4.5275438461538453      33.227580769230777      7.1900700000000004
    92   1      4.5275438461538453      33.227580769230777      3.0874199999999998
    93   1       5.448400769230771      20.642536153846155      11.292730000000001
    94   1       5.448400769230771      20.642536153846155      7.1900700000000004
    95   1       5.448400769230771      20.642536153846155      3.0874199999999998
    96   1      2.5324000000000004      8.6713900000000006      14.287419999999999
    97   1      50.570380769230781       26.47462615384616      3.0874199999999998
    98   1       29.85111615384616      1.6113592307692306      22.492730000000002
    99   1       29.85111615384616      1.6113592307692306      18.390070000000001
   100   1       29.85111615384616      1.6113592307692306      14.287419999999999
   101   1      6.9831623076923091      16.959108461538467      11.292730000000001
   102   1      6.9831623076923091      16.959108461538467      7.1900700000000004
   103   1      6.9831623076923091      16.959108461538467      3.0874199999999998
   104   1      2.9927823076923064      36.911008461538472      11.292730000000001
   105   1      2.9927823076923064      36.911008461538472      7.1900700000000004
   106   1      2.9927823076923064      36.911008461538472      3.0874199999999998
   107   1      1.4580207692307694      40.594436153846161      11.292730000000001
   108   1      10.052685384615387      9.5922530769230789      11.292730000000001
   109   1      10.052685384615387      9.5922530769230789      7.1900700000000004
   110   1      10.052685384615387      9.5922530769230789      3.0874199999999998
   111   1      33.534536153846162    0.076579230769232134      22.492730000000002
   112   1      33.534536153846162    0.076579230769232134      18.390070000000001
   113   1      39.213145384615387      43.357003076923085      7.1900700000000004
   114   1      39.213145384615387      43.357003076923085      3.0874199999999998
   115   1      37.678383846153849      47.040430769230781      11.292730000000001
   116   1      37.678383846153849      47.040430769230781      7.1900700000000004
   117   1      37.678383846153849      47.040430769230781      3.0874199999999998
   118   1      26.167696153846158      3.1461392307692311      22.492730000000002
   119   1      26.167696153846158      3.1461392307692311      18.390070000000001
   120   1      26.167696153846158      3.1461392307692311      14.287419999999999
   121   1       22.48427615384616      4.6809192307692324      22.492730000000002
   122   1       22.48427615384616      4.6809192307692324      18.390070000000001
   123   1       22.48427615384616      4.6809192307692324      14.287419999999999
   124   1      36.143622307692311       50.72385846153847      11.292730000000001
   125   1      36.143622307692311       50.72385846153847      7.1900700000000004
   126   1      36.143622307692311       50.72385846153847      3.0874199999999998
   127   1      50.570380769230781       26.47462615384616      11.292730000000001
   128   1      50.570380769230781       26.47462615384616      7.1900700000000004
   129   1      15.117440000000002      7.7504700000000017      14.287419999999999
   130   1      40.747906923076933       39.67357538461539      11.292730000000001
   131   1      40.747906923076933       39.67357538461539      7.1900700000000004
   132   1      40.747906923076933       39.67357538461539      3.0874199999999998
   133   1      8.5179238461538471      13.275680769230773      11.292730000000001
   134   1      8.5179238461538471      13.275680769230773      7.1900700000000004
   135   1      8.5179238461538471      13.275680769230773      3.0874199999999998
   136   1      1.4580207692307694      40.594436153846161      7.1900700000000004
   137   1      1.4580207692307694      40.594436153846161      3.0874199999999998
   138   1      11.587446923076925       5.908825384615386      11.292730000000001
   139   1      11.587446923076925       5.908825384615386      7.1900700000000004
   140   1      11.587446923076925       5.908825384615386      3.0874199999999998
   141   1      18.800856153846158       6.215699230769232      22.492730000000002
   142   1      18.800856153846158       6.215699230769232      18.390070000000001
   143   1      18.800856153846158       6.215699230769232      14.287419999999999
   144   1      39.213145384615387      43.357003076923085      11.292730000000001
   145   1      11.434020000000004      9.2852500000000013      18.390070000000001
   146   1      11.434020000000004      9.2852500000000013      14.287419999999999
   147   1      7.7506000000000022      10.820030000000003      22.492730000000002
   148   1      7.7506000000000022      10.820030000000003      18.390070000000001
   149   1      7.7506000000000022      10.820030000000003      14.287419999999999
   150   1      13.122204615384618      2.2254069230769233      11.292730000000001
   151   1      13.122204615384618      2.2254069230769233      7.1900700000000004
   152   1      13.122204615384618      2.2254069230769233      3.0874199999999998
   153   1      22.023821538461544      1.6115023076923087      11.292730000000001
   154   1      22.023821538461544      1.6115023076923087      7.1900700000000004
   155   1      22.023821538461544      1.6115023076923087      3.0874199999999998
   156   1     0.23021153846153911      22.791202307692313      11.292730000000001
   157   1     0.23021153846153911      22.791202307692313      7.1900700000000004
   158   1     0.23021153846153911      22.791202307692313      3.0874199999999998
   159   1      15.117440000000002      7.7504700000000017      22.492730000000002
   160   1      15.117440000000002      7.7504700000000017      18.390070000000001
   161   1      45.352191538461547      28.623292307692314      11.292730000000001
   162   1      45.352191538461547      28.623292307692314      7.1900700000000004
   163   1      45.352191538461547      28.623292307692314      3.0874199999999998
   164   1      43.817430000000009      32.306720000000006      11.292730000000001
   165   1      43.817430000000009      32.306720000000006      7.1900700000000004
   166   1      43.817430000000009      32.306720000000006      3.0874199999999998
   167   1      4.0671799999999996      12.354810000000002      22.492730000000002
   168   1      4.0671799999999996      12.354810000000002      18.390070000000001
   169   1      4.0671799999999996      12.354810000000002      14.287419999999999
   170   1     0.38375076923076923      13.889586153846157      22.492730000000002
   171   1     0.38375076923076923      13.889586153846157      18.390070000000001
   172   1     0.38375076923076923      13.889586153846157      14.287419999999999
   173   1      42.282668461538471      35.990147692307694      11.292730000000001
   174   1      42.282668461538471      35.990147692307694      7.1900700000000004
   175   1      42.282668461538471      35.990147692307694      3.0874199999999998
   176   1      11.434020000000004      9.2852500000000013      22.492730000000002
   177   1       35.06931615384616      3.7599992307692331      18.390070000000001
   178   1       35.06931615384616      3.7599992307692331      14.287419999999999
   179   1      46.886953076923085      24.939864615384618      11.292730000000001
   180   1      46.886953076923085      24.939864615384618      7.1900700000000004
   181   1      46.886953076923085      24.939864615384618      3.0874199999999998
   182   1      42.436152307692318     0.69044846153846162      22.492730000000002
   183   1      42.436152307692318     0.69044846153846162      18.390070000000001
   184   1      42.436152307692318     0.69044846153846162      14.287419999999999
   185   1      1.7649730769230785      19.107774615384617      11.292730000000001
   186   1      1.7649730769230785      19.107774615384617      7.1900700000000004
   187   1      1.7649730769230785      19.107774615384617      3.0874199999999998
   188   1      20.489060000000006      5.2949300000000017      11.292730000000001
   189   1      20.489060000000006      5.2949300000000017      7.1900700000000004
   190   1      20.489060000000006      5.2949300000000017      3.0874199999999998
   191   1      18.954302307692313       8.978348461538463      11.292730000000001
   192   1      18.954302307692313       8.978348461538463      7.1900700000000004
   193   1      48.421714615384623      21.256436923076926      7.1900700000000004
   194   1      48.421714615384623      21.256436923076926      3.0874199999999998
   195   1      38.752736153846165      2.2252192307692313      22.492730000000002
   196   1      38.752736153846165      2.2252192307692313      18.390070000000001
   197   1      38.752736153846165      2.2252192307692313      14.287419999999999
   198   1       35.06931615384616      3.7599992307692331      22.492730000000002
   199   1      18.954302307692313       8.978348461538463      3.0874199999999998
   200   1      17.419540769230775      12.661776153846157      11.292730000000001
   201   1      17.419540769230775      12.661776153846157      7.1900700000000004
   202   1      17.419540769230775      12.661776153846157      3.0874199999999998
   203   1      4.8344961538461551      11.740919230769233      11.292730000000001
   204   1      4.8344961538461551      11.740919230769233      7.1900700000000004
   205   1      4.8344961538461551      11.740919230769233      3.0874199999999998
   206   1      3.2997346153846165      15.424346923076927      11.292730000000001
   207   1      3.2997346153846165      15.424346923076927      7.1900700000000004
   208   1      3.2997346153846165      15.424346923076927      3.0874199999999998
   209   1       27.70246692307693      6.8295553846153867      22.492730000000002
   210   1       27.70246692307693      6.8295553846153867      18.390070000000001
   211   1       27.70246692307693      6.8295553846153867      14.287419999999999
   212   1      6.3692576923076949      8.0574915384615409      11.292730000000001
   213   1      6.3692576923076949      8.0574915384615409      7.1900700000000004
   214   1      6.3692576923076949      8.0574915384615409      3.0874199999999998
   215   1      15.884779230769235      16.345203846153851      11.292730000000001
   216   1      15.884779230769235      16.345203846153851      7.1900700000000004
   217   1      15.884779230769235      16.345203846153851      3.0874199999999998
   218   1       7.904019230769233       4.374063846153847      11.292730000000001
   219   1       7.904019230769233       4.374063846153847      7.1900700000000004
   220   1       7.904019230769233       4.374063846153847      3.0874199999999998
   221   1      31.385896153846158      5.2947792307692323      22.492730000000002
   222   1      31.385896153846158      5.2947792307692323      18.390070000000001
   223   1      31.385896153846158      5.2947792307692323      14.287419999999999
   224   1      48.421714615384623      21.256436923076926      11.292730000000001
   225   1      33.994956153846154      45.505669230769243      3.0874199999999998
   226   1      32.460194615384616      49.189096923076931      11.292730000000001
   227   1      32.460194615384616      49.189096923076931      7.1900700000000004
   228   1      32.460194615384616      49.189096923076931      3.0874199999999998
   229   1      24.019046923076928      8.3643353846153872      22.492730000000002
   230   1      24.019046923076928      8.3643353846153872      18.390070000000001
   231   1      24.019046923076928      8.3643353846153872      14.287419999999999
   232   1      20.335626923076926      9.8991153846153868      22.492730000000002
   233   1      20.335626923076926      9.8991153846153868      18.390070000000001
   234   1      20.335626923076926      9.8991153846153868      14.287419999999999
   235   1      51.491233846153854      13.889590769230772      11.292730000000001
   236   1      51.491233846153854      13.889590769230772      7.1900700000000004
   237   1      51.491233846153854      13.889590769230772      3.0874199999999998
   238   1      49.956472307692316      17.573018461538464      11.292730000000001
   239   1      49.956472307692316      17.573018461538464      7.1900700000000004
   240   1      49.956472307692316      17.573018461538464      3.0874199999999998
   241   1      35.529717692307692      41.822241538461547      11.292730000000001
   242   1      35.529717692307692      41.822241538461547      7.1900700000000004
   243   1      35.529717692307692      41.822241538461547      3.0874199999999998
   244   1      33.994956153846154      45.505669230769243      11.292730000000001
   245   1      16.652210769230773      11.433886153846156      22.492730000000002
   246   1      16.652210769230773      11.433886153846156      18.390070000000001
   247   1      9.4387769230769258     0.69064538461538483      11.292730000000001
   248   1      9.4387769230769258     0.69064538461538483      7.1900700000000004
   249   1      9.4387769230769258     0.69064538461538483      3.0874199999999998
   250   1      14.350017692307697      20.028631538461543      11.292730000000001
   251   1      14.350017692307697      20.028631538461543      7.1900700000000004
   252   1      14.350017692307697      20.028631538461543      3.0874199999999998
   253   1      2.6858300000000006       6.522730000000001      3.0874199999999998
   254   1      1.1510684615384617      10.206157692307695      11.292730000000001
   255   1      16.652210769230773      11.433886153846156      14.287419999999999
   256   1      33.994956153846154      45.505669230769243      7.1900700000000004
   257   1      37.064479230769237      38.138813846153852      7.1900700000000004
   258   1      37.064479230769237      38.138813846153852      3.0874199999999998
   259   1      1.1510684615384617      10.206157692307695      7.1900700000000004
   260   1      1.1510684615384617      10.206157692307695      3.0874199999999998
   261   1      12.815256153846159      23.712059230769235      11.292730000000001
   262   1      12.815256153846159      23.712059230769235      7.1900700000000004
   263   1      12.815256153846159      23.712059230769235      3.0874199999999998
   264   1      11.280494615384619       27.39548692307693      11.292730000000001
   265   1      11.280494615384619       27.39548692307693      7.1900700000000004
   266   1      11.280494615384619       27.39548692307693      3.0874199999999998
   267   1      4.2205915384615391      2.8393023076923081      11.292730000000001
   268   1      4.2205915384615391      2.8393023076923081      7.1900700000000004
   269   1      4.2205915384615391      2.8393023076923081      3.0874199999999998
   270   1      12.968790769230774      12.968666153846158      22.492730000000002
   271   1      12.968790769230774      12.968666153846158      18.390070000000001
   272   1      12.968790769230774      12.968666153846158      14.287419999999999
   273   1      47.654343076923084      2.8390846153846154      22.492730000000002
   274   1      40.134002307692313      30.771958461538468      7.1900700000000004
   275   1      40.134002307692313      30.771958461538468      3.0874199999999998
   276   1      38.599240769230775      34.455386153846156      11.292730000000001
   277   1      38.599240769230775      34.455386153846156      7.1900700000000004
   278   1      38.599240769230775      34.455386153846156      3.0874199999999998
   279   1      1.9185307692307692      17.573006153846158      22.492730000000002
   280   1      1.9185307692307692      17.573006153846158      18.390070000000001
   281   1      1.9185307692307692      17.573006153846158      14.287419999999999
   282   1      9.2853707692307701      14.503446153846156      22.492730000000002
   283   1      9.2853707692307701      14.503446153846156      18.390070000000001
   284   1      9.2853707692307701      14.503446153846156      14.287419999999999
   285   1      5.6019507692307693      16.038226153846157      22.492730000000002
   286   1      5.6019507692307693      16.038226153846157      18.390070000000001
   287   1      5.6019507692307693      16.038226153846157      14.287419999999999
   288   1      37.064479230769237      38.138813846153852      11.292730000000001
   289   1      46.119817692307699       51.03059153846155      14.287419999999999
   290   1      43.970923076923086      4.3738646153846155      22.492730000000002
   291   1      43.970923076923086      4.3738646153846155      18.390070000000001
   292   1      43.970923076923086      4.3738646153846155      14.287419999999999
   293   1      41.668763846153851      27.088530769230776      11.292730000000001
   294   1      41.668763846153851      27.088530769230776      7.1900700000000004
   295   1      41.668763846153851      27.088530769230776      3.0874199999999998
   296   1      40.134002307692313      30.771958461538468      11.292730000000001
   297   1      51.337763076923089      1.3043046153846172      22.492730000000002
   298   1      51.337763076923089      1.3043046153846172      18.390070000000001
   299   1      2.6858300000000006       6.522730000000001      11.292730000000001
   300   1      2.6858300000000006       6.522730000000001      7.1900700000000004
   301   1      9.7457330769230808      31.078914615384619      11.292730000000001
   302   1      9.7457330769230808      31.078914615384619      7.1900700000000004
   303   1      9.7457330769230808      31.078914615384619      3.0874199999999998
   304   1      51.337763076923089      1.3043046153846172      14.287419999999999
   305   1      43.203525384615389       23.40510307692308      11.292730000000001
   306   1      43.203525384615389       23.40510307692308      7.1900700000000004
   307   1      43.203525384615389       23.40510307692308      3.0874199999999998
   308   1      47.654343076923084      2.8390846153846154      18.390070000000001
   309   1      47.654343076923084      2.8390846153846154      14.287419999999999
   310   1     0.53716384615384627      1.3045407692307693      11.292730000000001
   311   1     0.53716384615384627      1.3045407692307693      7.1900700000000004
   312   1     0.53716384615384627      1.3045407692307693      3.0874199999999998
   313   1      8.2109715384615409      34.762342307692315      11.292730000000001
   314   1      8.2109715384615409      34.762342307692315      7.1900700000000004
   315   1      8.2109715384615409      34.762342307692315      3.0874199999999998
   316   1      49.803237692307697      49.495811538461545      22.492730000000002
   317   1      49.803237692307697      49.495811538461545      18.390070000000001
   318   1      49.803237692307697      49.495811538461545      14.287419999999999
   319   1      46.119817692307699       51.03059153846155      22.492730000000002
   320   1      46.119817692307699       51.03059153846155      18.390070000000001
   321   1      36.604086923076927      7.4434153846153865      14.287419999999999
   322   1       6.676210000000002       38.44577000000001      11.292730000000001
   323   1       6.676210000000002       38.44577000000001      7.1900700000000004
   324   1       6.676210000000002       38.44577000000001      3.0874199999999998
   325   1      5.1414484615384648      42.129197692307699      11.292730000000001
   326   1      5.1414484615384648      42.129197692307699      7.1900700000000004
   327   1      5.1414484615384648      42.129197692307699      3.0874199999999998
   328   1      40.901617692307696      48.881951538461543      22.492730000000002
   329   1      40.901617692307696      48.881951538461543      18.390070000000001
   330   1      40.901617692307696      48.881951538461543      14.287419999999999
   331   1      37.218197692307697      50.416731538461548      22.492730000000002
   332   1      37.218197692307697      50.416731538461548      18.390070000000001
   333   1      32.920666923076929      8.9781953846153844      22.492730000000002
   334   1      40.287506923076926      5.9086353846153852      22.492730000000002
   335   1      40.287506923076926      5.9086353846153852      18.390070000000001
   336   1      40.287506923076926      5.9086353846153852      14.287419999999999
   337   1      47.807806153846158      12.354829230769234      11.292730000000001
   338   1      47.807806153846158      12.354829230769234      7.1900700000000004
   339   1      47.807806153846158      12.354829230769234      3.0874199999999998
   340   1       46.27304461538462      16.038256923076926      11.292730000000001
   341   1      32.920666923076929      8.9781953846153844      18.390070000000001
   342   1      32.920666923076929      8.9781953846153844      14.287419999999999
   343   1      29.237246923076928      10.512975384615387      22.492730000000002
   344   1      29.237246923076928      10.512975384615387      18.390070000000001
   345   1      29.237246923076928      10.512975384615387      14.287419999999999
   346   1       46.27304461538462      16.038256923076926      7.1900700000000004
   347   1       46.27304461538462      16.038256923076926      3.0874199999999998
   348   1      44.738286923076927      19.721675384615388      11.292730000000001
   349   1      44.738286923076927      19.721675384615388      7.1900700000000004
   350   1      44.738286923076927      19.721675384615388      3.0874199999999998
   351   1      36.604086923076927      7.4434153846153865      22.492730000000002
   352   1      36.604086923076927      7.4434153846153865      18.390070000000001
   353   1      49.342567692307696      8.6714015384615397      3.0874199999999998
   354   1      21.870406923076928      13.582535384615388      22.492730000000002
   355   1      21.870406923076928      13.582535384615388      18.390070000000001
   356   1      21.870406923076928      13.582535384615388      14.287419999999999
   357   1      18.186986923076926      15.117315384615388      22.492730000000002