(written by ASE)

1204 atoms
4 atom types

0.0      36.789477468726616  xlo xhi
0.0      36.789477468726616  ylo yhi
0.0                      50  zlo zhi

Masses

     1       137.3269999646734 # Ba
     2      15.998999995884349 # O
     3      207.19999994669897 # Pb
     4      47.866999987686484 # Ti

Atoms # atomic

     1   1      34.517190244499545      33.218735634789361      3.0874199999999998
     2   1      34.517190244499545      33.218735634789361      7.1900700000000004
     3   4      36.032051424972771      35.599231775532985      5.2105499999999996
     4   2      36.032051424972771      35.599231775532985      2.9496899999999999
     5   2       36.46486890510797       33.65155311492456                 5.06358
     6   2      34.084372764364346      35.166414295397779                 5.06358
     7   2      36.032051424972771      35.599231775532985      7.0523499999999997
     8   1      35.382825204769958      29.323378313572519      3.0874199999999998
     9   1      35.382825204769958      29.323378313572519      7.1900700000000004
    10   2      34.950007724634752       31.27105697418094                 5.06358
    11   1      36.248460165040363      25.428020992355677      3.0874199999999998
    12   1      36.248460165040363      25.428020992355677      7.1900700000000004
    13   2      35.815642684905164      27.375699652964098                 5.06358
    14   2       36.68127764517557      23.480342331747256                 5.06358
    15   1      29.756197963012298      36.248457995735791      3.0874199999999998
    16   1      29.756197963012298      36.248457995735791      7.1900700000000004
    17   2      31.703876623620722      36.681275475870997                 5.06358
    18   1      30.621832923282707      32.353100674518949      3.0874199999999998
    19   1      30.621832923282707      32.353100674518949      7.1900700000000004
    20   4      32.136694103755929      34.733596815262572      5.2105499999999996
    21   2      32.136694103755929      34.733596815262572      2.9496899999999999
    22   2      32.569511583891128      32.785918154654155                 5.06358
    23   2        30.1890154431475      34.300779335127373                 5.06358
    24   2      32.136694103755929      34.733596815262572      7.0523499999999997
    25   1      31.487467883553116       28.45774335330211      3.0874199999999998
    26   1      31.487467883553116       28.45774335330211      7.1900700000000004
    27   4      33.002329064026334      30.838239494045737      5.2105499999999996
    28   2      33.002329064026334      30.838239494045737      2.9496899999999999
    29   2       33.43514654416154      28.890560833437316                 5.06358
    30   2      31.054650403417909      30.405422013910531                 5.06358
    31   2      33.002329064026334      30.838239494045737      7.0523499999999997
    32   1      32.353102843823521      24.562386032085268      3.0874199999999998
    33   1      32.353102843823521      24.562386032085268      7.1900700000000004
    34   4      33.867964024296747      26.942882172828895      5.2105499999999996
    35   2      33.867964024296747      26.942882172828895      2.9496899999999999
    36   2      34.300781504431946      24.995203512220474                 5.06358
    37   2      31.920285363688318      26.510064692693689                 5.06358
    38   2      33.867964024296747      26.942882172828895      7.0523499999999997
    39   1      33.218737804093934      20.667028710868429      3.0874199999999998
    40   1      33.218737804093934      20.667028710868429      7.1900700000000004
    41   4      34.733598984567152      23.047524851612053      5.2105499999999996
    42   2      34.733598984567152      23.047524851612053      2.9496899999999999
    43   2      35.166416464702358      21.099846191003632                 5.06358
    44   2      32.785920323958727      22.614707371476847                 5.06358
    45   2      34.733598984567152      23.047524851612053      7.0523499999999997
    46   1      34.084372764364339      16.771671389651587      3.0874199999999998
    47   1      34.084372764364339      16.771671389651587      7.1900700000000004
    48   4      35.599233944837565      19.152167530395211      5.2105499999999996
    49   2      35.599233944837565      19.152167530395211      2.9496899999999999
    50   2      36.032051424972764      17.204488869786793                 5.06358
    51   2       33.65155528422914      18.719350050260008                 5.06358
    52   2      35.599233944837565      19.152167530395211      7.0523499999999997
    53   1      34.950007724634752      12.876314068434747      3.0874199999999998
    54   1      34.950007724634752      12.876314068434747      7.1900700000000004
    55   4       36.46486890510797       15.25681020917837      5.2105499999999996
    56   2       36.46486890510797       15.25681020917837      2.9496899999999999
    57   2      34.517190244499545      14.823992729043166                 5.06358
    58   2       36.46486890510797       15.25681020917837      7.0523499999999997
    59   1      35.815642684905164      8.9809567472179044      3.0874199999999998
    60   1      35.815642684905164      8.9809567472179044      7.1900700000000004
    61   2      35.382825204769958      10.928635407826325                 5.06358
    62   1       36.68127547587099      5.0856091878716656      3.0874199999999998
    63   1       36.68127547587099      5.0856091878716656      7.1900700000000004
    64   2      36.248457995735784      7.0332878484800867                 5.06358
    65   1      25.860840641795463      35.382823035465385      3.0874199999999998
    66   1      25.860840641795463      35.382823035465385      7.1900700000000004
    67   2       27.80851930240388      35.815640515600585                 5.06358
    68   1      26.726475602065872       31.48746571424854      3.0874199999999998
    69   1      26.726475602065872       31.48746571424854      7.1900700000000004
    70   4      28.241336782539083      33.867961854992167      5.2105499999999996
    71   2      28.241336782539083      33.867961854992167      2.9496899999999999
    72   2      28.674154262674289      31.920283194383746                 5.06358
    73   2      26.293658121930665      33.435144374856961                 5.06358
    74   2      28.241336782539083      33.867961854992167      7.0523499999999997
    75   1      27.592110562336281      27.592108393031701      3.0874199999999998
    76   1      27.592110562336281      27.592108393031701      7.1900700000000004
    77   4      29.106971742809492      29.972604533775325      5.2105499999999996
    78   2      29.106971742809492      29.972604533775325      2.9496899999999999
    79   2      29.539789222944698      28.024925873166904                 5.06358
    80   2      27.159293082201074      29.539787053640122                 5.06358
    81   2      29.106971742809492      29.972604533775325      7.0523499999999997
    82   1       28.45774552260669      23.696751071814859      3.0874199999999998
    83   1       28.45774552260669      23.696751071814859      7.1900700000000004
    84   4      29.972606703079901      26.077247212558483      5.2105499999999996
    85   2      29.972606703079901      26.077247212558483      2.9496899999999999
    86   2      30.405424183215107      24.129568551950062                 5.06358
    87   2      28.024928042471483       25.64442973242328                 5.06358
    88   2      29.972606703079901      26.077247212558483      7.0523499999999997
    89   1      29.323380482877099       19.80139375059802      3.0874199999999998
    90   1      29.323380482877099       19.80139375059802      7.1900700000000004
    91   4       30.83824166335031      22.181889891341644      5.2105499999999996
    92   2       30.83824166335031      22.181889891341644      2.9496899999999999
    93   2      31.271059143485516      20.234211230733223                 5.06358
    94   2      28.890563002741892      21.749072411206438                 5.06358
    95   2       30.83824166335031      22.181889891341644      7.0523499999999997
    96   1      30.189015443147508      15.906036429381178      3.0874199999999998
    97   1      30.189015443147508      15.906036429381178      7.1900700000000004
    98   4      31.703876623620719      18.286532570124802      5.2105499999999996
    99   2      31.703876623620719      18.286532570124802      2.9496899999999999
   100   2      32.136694103755922      16.338853909516381                 5.06358
   101   2      29.756197963012301      17.853715089989599                 5.06358
   102   2      31.703876623620719      18.286532570124802      7.0523499999999997
   103   1      31.054650403417916      12.010679108164338      3.0874199999999998
   104   1      31.054650403417916      12.010679108164338      7.1900700000000004
   105   4      32.569511583891128      14.391175248907961      5.2105499999999996
   106   2      32.569511583891128      14.391175248907961      2.9496899999999999
   107   2      33.002329064026334       12.44349658829954                 5.06358
   108   2       30.62183292328271      13.958357768772757                 5.06358
   109   2      32.569511583891128      14.391175248907961      7.0523499999999997
   110   1      31.920285363688325      8.1153217869474954      3.0874199999999998
   111   1      31.920285363688325      8.1153217869474954      7.1900700000000004
   112   4       33.43514654416154      10.495817927691121      5.2105499999999996
   113   2       33.43514654416154      10.495817927691121      2.9496899999999999
   114   2      33.867964024296747      8.5481392670826999                 5.06358
   115   2      31.487467883553123      10.063000447555916                 5.06358
   116   2       33.43514654416154      10.495817927691121      7.0523499999999997
   117   1      32.785918154654155      4.2199742276012566      3.0874199999999998
   118   1      32.785918154654155      4.2199742276012566      7.1900700000000004
   119   4      34.300779335127366      6.6004703683448813      5.2105499999999996
   120   2      34.300779335127366      6.6004703683448813      2.9496899999999999
   121   2      34.733596815262572      4.6527917077364602                 5.06358
   122   2      32.353100674518949      6.1676528882096777                 5.06358
   123   2      34.300779335127366      6.6004703683448813      7.0523499999999997
   124   1      33.651553114924567     0.32461690638441654      3.0874199999999998
   125   1      33.651553114924567     0.32461690638441654      7.1900700000000004
   126   4      35.166414295397779      2.7051130471280405      5.2105499999999996
   127   2      35.166414295397779      2.7051130471280405      2.9496899999999999
   128   2      35.599231775532985     0.75743438651962014                 5.06358
   129   2      33.218735634789361      2.2722955669928369                 5.06358
   130   2      35.166414295397779      2.7051130471280405      7.0523499999999997
   131   1       21.96548332057862      34.517188075194973      3.0874199999999998
   132   1       21.96548332057862      34.517188075194973      7.1900700000000004
   133   2      23.913161981187038      34.950005555330179                 5.06358
   134   2      21.532665840443414       36.46486673580339                 5.06358
   135   1      22.831118280849029      30.621830753978131      3.0874199999999998
   136   1      22.831118280849029      30.621830753978131      7.1900700000000004
   137   4      24.345979461322241      33.002326894721755      5.2105499999999996
   138   2      24.345979461322241      33.002326894721755      2.9496899999999999
   139   2      24.778796941457447      31.054648234113337                 5.06358
   140   2      22.398300800713823      32.569509414586555                 5.06358
   141   2      24.345979461322241      33.002326894721755      7.0523499999999997
   142   1      23.696753241119438      26.726473432761292      3.0874199999999998
   143   1      23.696753241119438      26.726473432761292      7.1900700000000004
   144   4       25.21161442159265      29.106969573504916      5.2105499999999996
   145   2       25.21161442159265      29.106969573504916      2.9496899999999999
   146   2      25.644431901727856      27.159290912896495                 5.06358
   147   2      23.263935760984232      28.674152093369713                 5.06358
   148   2       25.21161442159265      29.106969573504916      7.0523499999999997
   149   1      24.562388201389847       22.83111611154445      3.0874199999999998
   150   1      24.562388201389847       22.83111611154445      7.1900700000000004
   151   4      26.077249381863059      25.211612252288074      5.2105499999999996
   152   2      26.077249381863059      25.211612252288074      2.9496899999999999
   153   2      26.510066861998265      23.263933591679653                 5.06358
   154   2      24.129570721254641      24.778794772152871                 5.06358
   155   2      26.077249381863059      25.211612252288074      7.0523499999999997
   156   1      25.428023161660256      18.935758790327611      3.0874199999999998
   157   1      25.428023161660256      18.935758790327611      7.1900700000000004
   158   4      26.942884342133468      21.316254931071235      5.2105499999999996
   159   2      26.942884342133468      21.316254931071235      2.9496899999999999
   160   2      27.375701822268674      19.368576270462814                 5.06358
   161   2       24.99520568152505      20.883437450936029                 5.06358
   162   2      26.942884342133468      21.316254931071235      7.0523499999999997
   163   1      26.293658121930665      15.040401469110769      3.0874199999999998
   164   1      26.293658121930665      15.040401469110769      7.1900700000000004
   165   4      27.808519302403877      17.420897609854393      5.2105499999999996
   166   2      27.808519302403877      17.420897609854393      2.9496899999999999
   167   2      28.241336782539083      15.473218949245974                 5.06358
   168   2      25.860840641795459       16.98808012971919                 5.06358
   169   2      27.808519302403877      17.420897609854393      7.0523499999999997
   170   1      27.159293082201074      11.145044147893929      3.0874199999999998
   171   1      27.159293082201074      11.145044147893929      7.1900700000000004
   172   4      28.674154262674286      13.525540288637552      5.2105499999999996
   173   2      28.674154262674286      13.525540288637552      2.9496899999999999
   174   2      29.106971742809492      11.577861628029131                 5.06358
   175   2      26.726475602065868      13.092722808502348                 5.06358
   176   2      28.674154262674286      13.525540288637552      7.0523499999999997
   177   1      28.024928042471483      7.2496868266770873      3.0874199999999998
   178   1      28.024928042471483      7.2496868266770873      7.1900700000000004
   179   4      29.539789222944698       9.630182967420712      5.2105499999999996
   180   2      29.539789222944698       9.630182967420712      2.9496899999999999
   181   2      29.972606703079901      7.6825043068122909                 5.06358
   182   2      27.592110562336281      9.1973654872855075                 5.06358
   183   2      29.539789222944698       9.630182967420712      7.0523499999999997
   184   1      28.890560833437313      3.3543392673308481      3.0874199999999998
   185   1      28.890560833437313      3.3543392673308481      7.1900700000000004
   186   4      30.405422013910528      5.7348354080744723      5.2105499999999996
   187   2      30.405422013910528      5.7348354080744723      2.9496899999999999
   188   2       30.83823949404573      3.7871567474660517                 5.06358
   189   2       28.45774335330211      5.3020179279392687                 5.06358
   190   2      30.405422013910528      5.7348354080744723      7.0523499999999997
   191   4      31.271056974180937      1.8394780868576317      5.2105499999999996
   192   2      31.271056974180937      1.8394780868576317      2.9496899999999999
   193   2      29.323378313572519      1.4066606067224281                 5.06358
   194   2      31.271056974180937      1.8394780868576317      7.0523499999999997
   195   1      18.070125999361778      33.651553114924567      3.0874199999999998
   196   1      18.070125999361778      33.651553114924567      7.1900700000000004
   197   4      19.584987179834993      36.032049255668184      5.2105499999999996
   198   2      19.584987179834993      36.032049255668184      2.9496899999999999
   199   2      20.017804659970199      34.084370595059767                 5.06358
   200   2      17.637308519226572      35.599231775532985                 5.06358
   201   2      19.584987179834993      36.032049255668184      7.0523499999999997
   202   1      18.935760959632187      29.756195793707722      3.0874199999999998
   203   1      18.935760959632187      29.756195793707722      7.1900700000000004
   204   4      20.450622140105402      32.136691934451349      5.2105499999999996
   205   2      20.450622140105402      32.136691934451349      2.9496899999999999
   206   2      20.883439620240608      30.189013273842928                 5.06358
   207   2      18.502943479496981      31.703874454316143                 5.06358
   208   2      20.450622140105402      32.136691934451349      7.0523499999999997
   209   1      19.801395919902596      25.860838472490883      3.0874199999999998
   210   1      19.801395919902596      25.860838472490883      7.1900700000000004
   211   4      21.316257100375811      28.241334613234507      5.2105499999999996
   212   2      21.316257100375811      28.241334613234507      2.9496899999999999
   213   2      21.749074580511017      26.293655952626086                 5.06358
   214   2       19.36857843976739      27.808517133099304                 5.06358
   215   2      21.316257100375811      28.241334613234507      7.0523499999999997
   216   1      20.667030880173005      21.965481151274041      3.0874199999999998
   217   1      20.667030880173005      21.965481151274041      7.1900700000000004
   218   4       22.18189206064622      24.345977292017665      5.2105499999999996
   219   2       22.18189206064622      24.345977292017665      2.9496899999999999
   220   2      22.614709540781426      22.398298631409244                 5.06358
   221   2      20.234213400037799      23.913159811882462                 5.06358
   222   2       22.18189206064622      24.345977292017665      7.0523499999999997
   223   1      21.532665840443414      18.070123830057202      3.0874199999999998
   224   1      21.532665840443414      18.070123830057202      7.1900700000000004
   225   4      23.047527020916629      20.450619970800826      5.2105499999999996
   226   2      23.047527020916629      20.450619970800826      2.9496899999999999
   227   2      23.480344501051835      18.502941310192405                 5.06358
   228   2      21.099848360308208       20.01780249066562                 5.06358
   229   2      23.047527020916629      20.450619970800826      7.0523499999999997
   230   1      22.398300800713823       14.17476650884036      3.0874199999999998
   231   1      22.398300800713823       14.17476650884036      7.1900700000000004
   232   4      23.913161981187038      16.555262649583984      5.2105499999999996
   233   2      23.913161981187038      16.555262649583984      2.9496899999999999
   234   2      24.345979461322244      14.607583988975565                 5.06358
   235   2      21.965483320578617      16.122445169448781                 5.06358
   236   2      23.913161981187038      16.555262649583984      7.0523499999999997
   237   1      23.263935760984232      10.279409187623518      3.0874199999999998
   238   1      23.263935760984232      10.279409187623518      7.1900700000000004
   239   4      24.778796941457447      12.659905328367143      5.2105499999999996
   240   2      24.778796941457447      12.659905328367143      2.9496899999999999
   241   2      25.211614421592653      10.712226667758722                 5.06358
   242   2      22.831118280849026      12.227087848231939                 5.06358
   243   2      24.778796941457447      12.659905328367143      7.0523499999999997
   244   1      24.129570721254641      6.3840518664066774      3.0874199999999998
   245   1      24.129570721254641      6.3840518664066774      7.1900700000000004
   246   4      25.644431901727859       8.764548007150303      5.2105499999999996
   247   2      25.644431901727859       8.764548007150303      2.9496899999999999
   248   2      26.077249381863062      6.8168693465418819                 5.06358
   249   2      23.696753241119438      8.3317305270150985                 5.06358
   250   2      25.644431901727859       8.764548007150303      7.0523499999999997
   251   1      24.995203512220471      2.4887043070604382      3.0874199999999998
   252   1      24.995203512220471      2.4887043070604382      7.1900700000000004
   253   4      26.510064692693689      4.8692004478040634      5.2105499999999996
   254   2      26.510064692693689      4.8692004478040634      2.9496899999999999
   255   2      26.942882172828892      2.9215217871956427                 5.06358
   256   2      24.562386032085268      4.4363829676688589                 5.06358
   257   2      26.510064692693689      4.8692004478040634      7.0523499999999997
   258   4      27.375699652964098     0.97384312658722261      5.2105499999999996
   259   2      27.375699652964098     0.97384312658722261      2.9496899999999999
   260   2      25.428020992355677     0.54102564645201812                 5.06358
   261   2      27.375699652964098     0.97384312658722261      7.0523499999999997
   262   1      13.309133717874529      36.681275475870997      3.0874199999999998
   263   1      13.309133717874529      36.681275475870997      7.1900700000000004
   264   1      14.174768678144938      32.785918154654155      3.0874199999999998
   265   1      14.174768678144938      32.785918154654155      7.1900700000000004
   266   4      15.689629858618154      35.166414295397779      5.2105499999999996
   267   2      15.689629858618154      35.166414295397779      2.9496899999999999
   268   2      16.122447338753361      33.218735634789361                 5.06358
   269   2      13.741951198009733      34.733596815262572                 5.06358
   270   2      15.689629858618154      35.166414295397779      7.0523499999999997
   271   1      15.040403638415349      28.890560833437313      3.0874199999999998
   272   1      15.040403638415349      28.890560833437313      7.1900700000000004
   273   4      16.555264818888563       31.27105697418094      5.2105499999999996
   274   2      16.555264818888563       31.27105697418094      2.9496899999999999
   275   2       16.98808229902377      29.323378313572519                 5.06358
   276   2      14.607586158280142      30.838239494045734                 5.06358
   277   2      16.555264818888563       31.27105697418094      7.0523499999999997
   278   1      15.906038598685756      24.995203512220474      3.0874199999999998
   279   1      15.906038598685756      24.995203512220474      7.1900700000000004
   280   4      17.420899779158972      27.375699652964098      5.2105499999999996
   281   2      17.420899779158972      27.375699652964098      2.9496899999999999
   282   2      17.853717259294179      25.428020992355677                 5.06358
   283   2      15.473221118550551      26.942882172828895                 5.06358
   284   2      17.420899779158972      27.375699652964098      7.0523499999999997
   285   1      16.771673558956167      21.099846191003632      3.0874199999999998
   286   1      16.771673558956167      21.099846191003632      7.1900700000000004
   287   4      18.286534739429381      23.480342331747256      5.2105499999999996
   288   2      18.286534739429381      23.480342331747256      2.9496899999999999
   289   2      18.719352219564588      21.532663671138835                 5.06358
   290   2       16.33885607882096      23.047524851612053                 5.06358
   291   2      18.286534739429381      23.480342331747256      7.0523499999999997
   292   1      17.637308519226575      17.204488869786793      3.0874199999999998
   293   1      17.637308519226575      17.204488869786793      7.1900700000000004
   294   4       19.15216969969979      19.584985010530417      5.2105499999999996
   295   2       19.15216969969979      19.584985010530417      2.9496899999999999
   296   2      19.584987179834997      17.637306349921996                 5.06358
   297   2      17.204491039091369      19.152167530395211                 5.06358
   298   2       19.15216969969979      19.584985010530417      7.0523499999999997
   299   1      18.502943479496984      13.309131548569951      3.0874199999999998
   300   1      18.502943479496984      13.309131548569951      7.1900700000000004
   301   4      20.017804659970199      15.689627689313575      5.2105499999999996
   302   2      20.017804659970199      15.689627689313575      2.9496899999999999
   303   2      20.450622140105406      13.741949028705156                 5.06358
   304   2      18.070125999361778       15.25681020917837                 5.06358
   305   2      20.017804659970199      15.689627689313575      7.0523499999999997
   306   1      19.368578439767393      9.4137742273531089      3.0874199999999998
   307   1      19.368578439767393      9.4137742273531089      7.1900700000000004
   308   4      20.883439620240608      11.794270368096734      5.2105499999999996
   309   2      20.883439620240608      11.794270368096734      2.9496899999999999
   310   2      21.316257100375815      9.8465917074883134                 5.06358
   311   2      18.935760959632187       11.36145288796153                 5.06358
   312   2      20.883439620240608      11.794270368096734      7.0523499999999997
   313   1      20.234213400037802      5.5184169061362685      3.0874199999999998
   314   1      20.234213400037802      5.5184169061362685      7.1900700000000004
   315   4      21.749074580511021       7.898913046879894      5.2105499999999996
   316   2      21.749074580511021       7.898913046879894      2.9496899999999999
   317   2      22.181892060646224      5.9512343862714729                 5.06358
   318   2        19.8013959199026      7.4660955667446895                 5.06358
   319   2      21.749074580511021       7.898913046879894      7.0523499999999997
   320   1      21.099846191003632      1.6230693467900292      3.0874199999999998
   321   1      21.099846191003632      1.6230693467900292      7.1900700000000004
   322   4       22.61470737147685      4.0035654875336544      5.2105499999999996
   323   2       22.61470737147685      4.0035654875336544      2.9496899999999999
   324   2      23.047524851612053      2.0558868269252337                 5.06358
   325   2      20.667028710868429      3.5707480073984499                 5.06358
   326   2       22.61470737147685      4.0035654875336544      7.0523499999999997
   327   4      23.480342331747259     0.10820816631681368      5.2105499999999996
   328   2      23.480342331747259     0.10820816631681368      2.9496899999999999
   329   2      23.480342331747259     0.10820816631681368      7.0523499999999997
   330   1      9.4137763966576866      35.815640515600592      3.0874199999999998
   331   1      9.4137763966576866      35.815640515600592      7.1900700000000004
   332   2      11.361455057266108      36.248457995735791                 5.06358
   333   1      10.279411356928096      31.920283194383746      3.0874199999999998
   334   1      10.279411356928096      31.920283194383746      7.1900700000000004
   335   4      11.794272537401312      34.300779335127366      5.2105499999999996
   336   2      11.794272537401312      34.300779335127366      2.9496899999999999
   337   2      12.227090017536517      32.353100674518949                 5.06358
   338   2      9.8465938767928911      33.867961854992167                 5.06358
   339   2      11.794272537401312      34.300779335127366      7.0523499999999997
   340   1      11.145046317198506      28.024925873166904      3.0874199999999998
   341   1      11.145046317198506      28.024925873166904      7.1900700000000004
   342   4      12.659907497671721      30.405422013910531      5.2105499999999996
   343   2      12.659907497671721      30.405422013910531      2.9496899999999999
   344   2      13.092724977806927       28.45774335330211                 5.06358
   345   2        10.7122288370633      29.972604533775325                 5.06358
   346   2      12.659907497671721      30.405422013910531      7.0523499999999997
   347   1      12.010681277468914      24.129568551950065      3.0874199999999998
   348   1      12.010681277468914      24.129568551950065      7.1900700000000004
   349   4       13.52554245794213      26.510064692693689      5.2105499999999996
   350   2       13.52554245794213      26.510064692693689      2.9496899999999999
   351   2      13.958359938077335      24.562386032085268                 5.06358
   352   2      11.577863797333709      26.077247212558486                 5.06358
   353   2       13.52554245794213      26.510064692693689      7.0523499999999997
   354   1      12.876316237739324      20.234211230733223      3.0874199999999998
   355   1      12.876316237739324      20.234211230733223      7.1900700000000004
   356   4      14.391177418212541      22.614707371476847      5.2105499999999996
   357   2      14.391177418212541      22.614707371476847      2.9496899999999999