(written by ASE)

17171 atoms
4 atom types

0.0      137.76924687517322  xlo xhi
0.0      137.76924687517322  ylo yhi
0.0      63.177851719700001  zlo zhi

Masses

     1       137.3269999646734 # Ba
     2      15.998999995884349 # O
     3      207.19999994669897 # Pb
     4      47.866999987686484 # Ti

Atoms # atomic

     1   2  3.5876859547509102e-10      51.663467578024772      5.0635815537999997
     2   2   3.587655501524006e-10      120.54809101561139      5.0635815537999997
     3   4  0.00010369803625541659      125.07844369880102      13.808564961699998
     4   2  0.00010369803625541659      125.07844369880102      11.293897032299999
     5   2  0.00010369803625541659      125.07844369880102      15.579784652299999
     6   2  0.00012684671851113011      56.223565027677409           13.4298776893
     7   2  0.00013765995111059476      81.472364767471547           13.4298776893
     8   3  0.00016080863342496081      12.617486096347886           11.8416575997
     9   3  0.00016080863342496081      12.617486096347886           16.1275452197
    10   4  0.00026421659460629259       37.98526490199388      13.808564961699998
    11   2  0.00026421659460629259       37.98526490199388      11.293897032299999
    12   2  0.00026421659460629259       37.98526490199388      15.579784652299999
    13   2  0.00038054015540935174      30.901448207859026           13.4298776893
    14   2  0.00090897334413025217      106.87197801184715           13.4298776893
    15   3   0.0010252969054284401      99.788161317711982           11.8416575997
    16   3   0.0010252969054284401      99.788161317711982           16.1275452197
    17   2    0.054008049368750005      132.15932426453884           13.4298776893
    18   3    0.056253123652504566      63.267142296653432           11.8416575997
    19   3    0.056253123652504566      63.267142296653432           16.1275452197
    20   2     0.10550680786012366      19.687071844622611           13.4298776893
    21   4     0.10775188214289602      88.564136751910198      13.808564961699998
    22   2     0.10775188214289602      88.564136751910198      11.293897032299999
    23   2     0.10775188214289602      88.564136751910198      15.579784652299999
    24   4     0.11557822706150876      39.527753717280504      5.2105475048000001
    25   2     0.11557822706150876      39.527753717280504               2.9496935
    26   2     0.11557822706150876      39.527753717280504      7.0523489108000001
    27   4     0.11557822706150728      108.41237715486695      5.2105475048000001
    28   2     0.11557822706150728      108.41237715486695               2.9496935
    29   2     0.11557822706150728      108.41237715486695      7.0523489108000001
    30   1     0.11557822750740239      5.0854419991245337      3.0874183849999999
    31   1     0.11557822750740239      5.0854419991245337      7.1900737958000001
    32   1     0.11557822750740214      73.970065436711266      3.0874183849999999
    33   1     0.11557822750740214      73.970065436711266      7.1900737958000001
    34   3     0.16342998516758489      113.85984169366765           11.8416575997
    35   3     0.16342998516758489      113.85984169366765           16.1275452197
    36   2     0.17336584308435496      44.933246260052812           13.4298776893
    37   4     0.21492874365895689      1.3875892737509465      13.808564961699998
    38   2     0.21492874365895689      1.3875892737509465      11.293897032299999
    39   2     0.21492874365895689      1.3875892737509465      15.579784652299999
    40   2     0.21717381794173105      70.264654181038836           13.4298776893
    41   2     0.23115645421013875      61.834351575966707      5.0635815537999997
    42   2     0.23115645421013695      130.71897501355332      5.0635815537999997
    43   2      0.2311564548474104      27.392039856727379      5.0635815537999997
    44   2     0.23115645484741057      96.276663294313877      5.0635815537999997
    45   2      0.2715624074658945      95.556179778263399           13.4298776893
    46   3     0.29176807601648319      26.603529567985756           11.8416575997
    47   3     0.29176807601648319      26.603529567985756           16.1275452197
    48   4     0.32659575374007183      51.965171610167353      13.808564961699998
    49   2     0.32659575374007183      51.965171610167353      11.293897032299999
    50   2     0.32659575374007183      51.965171610167353      15.579784652299999
    51   2      0.3272405104900909      120.85188472002073           13.4298776893
    52   4     0.34673468155014975      15.256325995983062      5.2105475048000001
    53   2     0.34673468155014975      15.256325995983062               2.9496935
    54   2     0.34673468155014975      15.256325995983062      7.0523489108000001
    55   4     0.34673468155014764      84.140949433569673      5.2105475048000001
    56   2     0.34673468155014764      84.140949433569673               2.9496935
    57   2     0.34673468155014764      84.140949433569673      7.0523489108000001
    58   1     0.34673468199604207      49.698637715413639      3.0874183849999999
    59   1     0.34673468199604207      49.698637715413639      7.1900737958000001
    60   1     0.34673468199604024      118.58326115300025      3.0874183849999999
    61   1     0.34673468199604024      118.58326115300025      7.1900737958000001
    62   3     0.38098434326472597      77.256697207392037           11.8416575997
    63   3     0.38098434326472597      77.256697207392037           16.1275452197
    64   2       0.408880795448334      8.2696335313858711           13.4298776893
    65   2     0.43601768953890618      33.665689039296296           13.4298776893
    66   4     0.43666244628843204      102.55240214914896      13.808564961699998
    67   2     0.43666244628843204      102.55240214914896      11.293897032299999
    68   2     0.43666244628843204      102.55240214914896      15.579784652299999
    69   2     0.46231290869877967      37.562923854669442      5.0635815537999997
    70   2     0.46231290869878261      106.44754729225605      5.0635815537999997
    71   2     0.46231290933580499      72.005235573017103      5.0635815537999997
    72   2     0.46231290933605201      3.1206121354299934      5.0635815537999997
    73   2     0.49040627906257661       58.95721463652044           13.4298776893
    74   3     0.52439319734754541      127.71463257252417           11.8416575997
    75   3     0.52439319734754541      127.71463257252417           16.1275452197
    76   4     0.57789113603829834      128.75414514985951      5.2105475048000001
    77   2     0.57789113603829834      128.75414514985951               2.9496935
    78   2     0.57789113603829834      128.75414514985951      7.0523489108000001
    79   4     0.57789113603854492       59.86952171227265      5.2105475048000001
    80   2     0.57789113603854492       59.86952171227265               2.9496935
    81   2     0.57789113603854492       59.86952171227265      7.0523489108000001
    82   1     0.57789113648468382      25.427209994116126      3.0874183849999999
    83   1     0.57789113648468382      25.427209994116126      7.1900737958000001
    84   1     0.57789113648468526      94.311833431702738      3.0874183849999999
    85   1     0.57789113648468526      94.311833431702738      7.1900737958000001
    86   2     0.59134296915232365      84.147410958125775           13.4298776893
    87   4     0.59136611783469795      15.292532287002359      13.808564961699998
    88   2     0.59136611783469795      15.292532287002359      11.293897032299999
    89   2     0.59136611783469795      15.292532287002359      15.579784652299999
    90   3     0.59982821486141147      40.657732065649263           11.8416575997
    91   3     0.59982821486141147      40.657732065649263           16.1275452197
    92   2     0.60047297161142965      109.54444517550229           13.4298776893
    93   4     0.65421680438557306      65.949257662873592      13.808564961699998
    94   2     0.65421680438557306      65.949257662873592      11.293897032299999
    95   2     0.65421680438557306      65.949257662873592      15.579784652299999
    96   2      0.6609520272363395      134.81120550956356           13.4298776893
    97   2     0.69346936318717778      13.291496133372663      5.0635815537999997
    98   2     0.69346936318742114      82.176119570958775      5.0635815537999997
    99   2     0.69346936382420155       47.73380785171959      5.0635815537999997
   100   2     0.69346936382420254      116.61843128930632      5.0635815537999997
   101   3     0.70860539391022548      91.240783260098354           11.8416575997
   102   3     0.70860539391022548      91.240783260098354           16.1275452197
   103   2     0.70925015065975539      22.358249494778025           13.4298776893
   104   2     0.76363874018391831      47.649775092002407           13.4298776893
   105   4     0.77935426016749287      116.48148881749587      13.808564961699998
   106   2     0.77935426016749287      116.48148881749587      11.293897032299999
   107   2     0.77935426016749287      116.48148881749587      15.579784652299999
   108   4     0.80904759052694131        35.5980939909753      5.2105475048000001
   109   2     0.80904759052694131        35.5980939909753               2.9496935
   110   2     0.80904759052694131        35.5980939909753      7.0523489108000001
   111   4     0.80904759052693909      104.48271742856194      5.2105475048000001
   112   2     0.80904759052693909      104.48271742856194               2.9496935
   113   2     0.80904759052693909      104.48271742856194      7.0523489108000001
   114   1     0.80904759097308043      1.1557822728192284      3.0874183849999999
   115   1     0.80904759097308043      1.1557822728192284      7.1900737958000001
   116   1     0.80904759097307832      70.040405710405722      3.0874183849999999
   117   1     0.80904759097307832      70.040405710405722      7.1900737958000001
   118   3      0.8157822554248183      4.0642357819394013           11.8416575997
   119   3      0.8157822554248183      4.0642357819394013           16.1275452197
   120   2     0.81802732970856817      72.941300689226679           13.4298776893
   121   4     0.87306067598274983      29.350292521131113      13.808564961699998
   122   2     0.87306067598274983      29.350292521131113      11.293897032299999
   123   2     0.87306067598274983      29.350292521131113      15.579784652299999
   124   2     0.89646697959983124      98.147592780895863           13.4298776893
   125   2     0.92462581767557361      57.904691849661766      5.0635815537999997
   126   2     0.92462581767557062      126.78931528724839      5.0635815537999997
   127   2     0.92462581831308843      23.462380130422076      5.0635815537999997
   128   2     0.92462581831308899      92.347003568008702      5.0635815537999997
   129   3     0.92744926550740225      54.641818118355445           11.8416575997
   130   3     0.92744926550740225      54.641818118355445           16.1275452197
   131   2     0.92809402225644266      123.52853122820846           13.4298776893
   132   2     0.97959278074781397      11.056278808291999           13.4298776893
   133   4       1.011979381498556      79.823344946860686      13.808564961699998
   134   2       1.011979381498556      79.823344946860686      11.293897032299999
   135   2       1.011979381498556      79.823344946860686      15.579784652299999
   136   2      1.0368712013047665      36.342335547484019           13.4298776893
   137   3      1.0375159580552689      105.22904865733717           11.8416575997
   138   3      1.0375159580552689      105.22904865733717           16.1275452197
   139   4      1.0402040450155832      11.326666269678121      5.2105475048000001
   140   2      1.0402040450155832      11.326666269678121               2.9496935
   141   2      1.0402040450155832      11.326666269678121      7.0523489108000001
   142   4      1.0402040450155805      80.211289707264498      5.2105475048000001
   143   2      1.0402040450155805      80.211289707264498               2.9496935
   144   2      1.0402040450155805      80.211289707264498      7.0523489108000001
   145   1      1.0402040454617205      45.768977989108457      3.0874183849999999
   146   1      1.0402040454617205      45.768977989108457      7.1900737958000001
   147   1      1.0402040454617161      114.65360142669495      3.0874183849999999
   148   1      1.0402040454617161      114.65360142669495      7.1900737958000001
   149   2      1.0912597908294188      61.633861144708405           13.4298776893
   150   4      1.0919045475799249      130.52057425456167      13.808564961699998
   151   2      1.0919045475799249      130.52057425456167      11.293897032299999
   152   2      1.0919045475799249      130.52057425456167      15.579784652299999
   153   2      1.1501385289205972      86.910269681334796           13.4298776893
   154   2      1.1557822721642141      33.633264128364289      5.0635815537999997
   155   2      1.1557822721642128      102.51788756595093      5.0635815537999997
   156   2      1.1557822728014842      68.075575846711573      5.0635815537999997
   157   2      1.1557822728014837      136.96019928429817      5.0635815537999997
   158   3      1.1825714270357268      17.967578477656591           11.8416575997
   159   3      1.1825714270357268      17.967578477656591           16.1275452197
   160   4      1.2006817266272716      43.334378573837107      13.808564961699998
   161   2      1.2006817266272716      43.334378573837107      11.293897032299999
   162   2      1.2006817266272716      43.334378573837107      15.579784652299999
   163   2      1.2013264833777795      112.22109168369013           13.4298776893
   164   2      1.2557150729019386      137.51261728091464           13.4298776893
   165   3      1.2656509308196917      68.586021847300159           11.8416575997
   166   3      1.2656509308196917      68.586021847300159           16.1275452197
   167   4      1.2713604995042227      55.939861985967227      5.2105475048000001
   168   2      1.2713604995042227      55.939861985967227               2.9496935
   169   2      1.2713604995042227      55.939861985967227      7.0523489108000001
   170   4      1.2713604995042209      124.82448542355384      5.2105475048000001
   171   2      1.2713604995042209      124.82448542355384               2.9496935
   172   2      1.2713604995042209      124.82448542355384      7.0523489108000001
   173   1      1.2713604999501178      21.497550267811185      3.0874183849999999
   174   1      1.2713604999501178      21.497550267811185      7.1900737958000001
   175   1      1.2713604999501154      90.382173705397804      3.0874183849999999
   176   1      1.2713604999501154      90.382173705397804      7.1900737958000001
   177   4      1.3094589056765762       93.91742976828607      13.808564961699998
   178   2      1.3094589056765762       93.91742976828607      11.293897032299999
   179   2      1.3094589056765762       93.91742976828607      15.579784652299999
   180   2      1.3101036624270845       25.03489600296605           13.4298776893
   181   3      1.3651370087002845      119.21313471004335           11.8416575997
   182   3      1.3651370087002845      119.21313471004335           16.1275452197
   183   2      1.3840531637513314      50.256305155232866           13.4298776893
   184   2      1.3869387266528559      9.3618364070669884      5.0635815537999997
   185   2      1.3869387266528559        78.2464598446536      5.0635815537999997
   186   2      1.3869387272901259      43.804148125414159      5.0635815537999997
   187   2      1.3869387272901241      112.68877156300077      5.0635815537999997
   188   4      1.4166357671921479      6.7408822901267547      13.808564961699998
   189   2      1.4166357671921479      6.7408822901267547      11.293897032299999
   190   2      1.4166357671921479      6.7408822901267547      15.579784652299999
   191   2      1.4188808414749186      75.617947197414765           13.4298776893
   192   2      1.4745589444991187      100.91365213917192           13.4298776893
   193   3      1.5011658831836705      31.922409118632487           11.8416575997
   194   3      1.5011658831836705      31.922409118632487           16.1275452197
   195   4      1.5025169539928651      31.668434264669713      5.2105475048000001
   196   2      1.5025169539928651      31.668434264669713               2.9496935
   197   2      1.5025169539928651      31.668434264669713      7.0523489108000001
   198   4      1.5025169539928624      100.55305770225633      5.2105475048000001
   199   2      1.5025169539928624      100.55305770225633               2.9496935
   200   2      1.5025169539928624      100.55305770225633      7.0523489108000001
   201   1      1.5025169544387558      66.110745984100532      3.0874183849999999
   202   1      1.5025169544387558      66.110745984100532      7.1900737958000001
   203   1      1.5025169544387549      134.99536942168717      3.0874183849999999
   204   1      1.5025169544387549      134.99536942168717      7.1900737958000001
   205   4      1.5283027772732636      57.318464626543033      13.808564961699998
   206   2      1.5283027772732636      57.318464626543033      11.293897032299999
   207   2      1.5283027772732636      57.318464626543033      15.579784652299999
   208   2      1.5289475340237673      126.20517773639631           13.4298776893
   209   2       1.580446292514653      13.732925316480088           13.4298776893
   210   3      1.5826913667979139      82.609990223767738           11.8416575997
   211   3      1.5826913667979139      82.609990223767738           16.1275452197
   212   2      1.6180951811414948      53.975032123356215      5.0635815537999997
   213   2      1.6180951811414956       122.8596555609427      5.0635815537999997
   214   2      1.6180951817785216      19.532720404117136      5.0635815537999997
   215   2      1.6180951817785216      88.417343841703754      5.0635815537999997
   216   2      1.6377247130720962       39.01898205567192           13.4298776893
   217   4      1.6383694698216202      107.90569516552513      13.808564961699998
   218   2      1.6383694698216202      107.90569516552513      11.293897032299999
   219   2      1.6383694698216202      107.90569516552513      15.579784652299999
   220   2        1.69211330259577      64.310507652896248           13.4298776893
   221   4      1.7336734084812608      7.3970065433726946      5.2105475048000001
   222   2      1.7336734084812608      7.3970065433726946               2.9496935
   223   2      1.7336734084812608      7.3970065433726946      7.0523489108000001
   224   4      1.7336734084812597      76.281629980959309      5.2105475048000001
   225   2      1.7336734084812597      76.281629980959309               2.9496935
   226   2      1.7336734084812597      76.281629980959309      7.0523489108000001
   227   1      1.7336734089273995      41.839318262803026      3.0874183849999999
   228   1      1.7336734089273995      41.839318262803026      7.1900737958000001
   229   1      1.7336734089273964      110.72394170038964      3.0874183849999999
   230   1      1.7336734089273964      110.72394170038964      7.1900737958000001
   231   3      1.7740304296738389      133.08975472366581           11.8416575997
   232   3      1.7740304296738389      133.08975472366581           16.1275452197
   233   4      1.7740875402710652      20.628797121212553      13.808564961699998
   234   2      1.7740875402710652      20.628797121212553      11.293897032299999
   235   2      1.7740875402710652      20.628797121212553      15.579784652299999
   236   2      1.7741106889531948      89.543165325262493           13.4298776893
   237   3      1.8015352383946026      46.011025082025128           11.8416575997
   238   3      1.8015352383946026      46.011025082025128           16.1275452197
   239   2      1.8021799951446191      114.89773819187796           13.4298776893
   240   2      1.8492516356300759       29.70360440205981      5.0635815537999997
   241   2      1.8492516356301059      98.588227839646422      5.0635815537999997
   242   2      1.8492516362669169      64.145916120406483      5.0635815537999997
   243   2       1.849251636267164      133.03053955799285      5.0635815537999997
   244   4      1.8559238279187642      71.302550679249279      13.808564961699998
   245   2      1.8559238279187642      71.302550679249279      11.293897032299999
   246   2      1.8559238279187642      71.302550679249279      15.579784652299999
   247   2      1.8716393479028313      2.3650175295699927           13.4298776893
   248   3      1.9103124174434185      96.594076276474027           11.8416575997
   249   3      1.9103124174434185      96.594076276474027           16.1275452197
   250   2      1.9109571741934364       27.71154251115389           13.4298776893
   251   4      1.9648298629696552      52.010202259662044      5.2105475048000001
   252   2      1.9648298629696552      52.010202259662044               2.9496935
   253   2      1.9648298629696552      52.010202259662044      7.0523489108000001
   254   4      1.9648298629696512      120.89482569724854      5.2105475048000001
   255   2      1.9648298629696512      120.89482569724854               2.9496935
   256   2      1.9648298629696512      120.89482569724854      7.0523489108000001
   257   1      1.9648298634157937      86.452513979092629      3.0874183849999999
   258   1      1.9648298634157937      86.452513979092629      7.1900737958000001
   259   1      1.9648298634160395      17.567890541505516      3.0874183849999999
   260   1      1.9648298634160395      17.567890541505516      7.1900737958000001
   261   2      1.9653457637175957      53.003068108377974           13.4298776893
   262   4      1.9887520673346808      121.80036836814297      13.808564961699998
   263   2      1.9887520673346808      121.80036836814297      11.293897032299999
   264   2      1.9887520673346808      121.80036836814297      15.579784652299999
   265   3      2.0174892789584984      9.4175287983150859           11.8416575997
   266   3      2.0174892789584984      9.4175287983150859           16.1275452197
   267   2      2.0197343532417609      78.294593705602551           13.4298776893
   268   4      2.0747676995154518      34.703585537506612      13.808564961699998
   269   2      2.0747676995154518      34.703585537506612      11.293897032299999
   270   2      2.0747676995154518      34.703585537506612      15.579784652299999
   271   2      2.0804080901185342      5.4321766807617458      5.0635815537999997
   272   2      2.0804080901185302      74.316800118348368      5.0635815537999997
   273   2      2.0804080907555589      39.874488399109218      5.0635815537999997
   274   2      2.0804080907555584      108.75911183669608      5.0635815537999997
   275   2      2.1071543002668092       103.4706516760759           13.4298776893
   276   3      2.1291562890401048      59.995111134731246           11.8416575997
   277   3      2.1291562890401048      59.995111134731246           16.1275452197
   278   2      2.1298010457901229      128.88182424458415           13.4298776893
   279   2      2.1812998042810046      16.409571824668056           13.4298776893
   280   4       2.183544878564267      85.286636731955625      13.808564961699998
   281   2       2.183544878564267      85.286636731955625      11.293897032299999
   282   2       2.183544878564267      85.286636731955625      15.579784652299999
   283   4      2.1959863174582983      27.738774538364776      5.2105475048000001
   284   2      2.1959863174582983      27.738774538364776               2.9496935
   285   2      2.1959863174582983      27.738774538364776      7.0523489108000001
   286   4      2.1959863174582961      96.623397975951391      5.2105475048000001
   287   2      2.1959863174582961      96.623397975951391               2.9496935
   288   2      2.1959863174582961      96.623397975951391      7.0523489108000001
   289   1      2.1959863179041901      62.181086257795847      3.0874183849999999
   290   1      2.1959863179041901      62.181086257795847      7.1900737958000001
   291   1      2.1959863179044437      131.06570969538168      3.0874183849999999
   292   1      2.1959863179044437      131.06570969538168      7.1900737958000001
   293   2      2.2385782248384483       41.69562856385982           13.4298776893
   294   3      2.2424236166554441      110.56304526858229           11.8416575997
   295   3      2.2424236166554441      110.56304526858229           16.1275452197
   296   2      2.3115645446069291      50.045372397051032      5.0635815537999997
   297   2      2.3115645446069264      118.92999583463764      5.0635815537999997
   298   2      2.3115645452442006       15.60306067781171      5.0635815537999997
   299   2      2.3115645452441993      84.487684115398324      5.0635815537999997
   300   4       2.365235738875048      135.76480091432006      13.808564961699998
   301   2       2.365235738875048      135.76480091432006      11.293897032299999
   302   2       2.365235738875048      135.76480091432006      15.579784652299999
   303   2      2.3652588875573661      66.909922243196391           13.4298776893
   304   2      2.3653159981543443      92.218211515916593           13.4298776893
   305   3      2.3653391468364768      23.363332844793245           11.8416575997
   306   3      2.3653391468364768      23.363332844793245           16.1275452197
   307   4       2.402388750160954      48.687671590212979      13.808564961699998
   308   2       2.402388750160954      48.687671590212979      11.293897032299999
   309   2       2.402388750160954      48.687671590212979      15.579784652299999
   310   2      2.4030335069114597      117.57438470006619           13.4298776893
   311   4      2.4271427719469401      3.4673468170674497      5.2105475048000001
   312   2      2.4271427719469401      3.4673468170674497               2.9496935
   313   2      2.4271427719469401      3.4673468170674497      7.0523489108000001
   314   4      2.4271427719469387      72.351970254653637      5.2105475048000001
   315   2      2.4271427719469387      72.351970254653637               2.9496935
   316   2      2.4271427719469387      72.351970254653637      7.0523489108000001
   317   1      2.4271427723928332      37.909658536498334      3.0874183849999999
   318   1      2.4271427723928332      37.909658536498334      7.1900737958000001
   319   1      2.4271427723928327       106.7942819740847      3.0874183849999999
   320   1      2.4271427723928327       106.7942819740847      7.1900737958000001
   321   2      2.4545322654018538      5.1021322801497195           13.4298776893
   322   3      2.4763382514859313      73.909080742479986           11.8416575997
   323   3      2.4763382514859313      73.909080742479986           16.1275452197
   324   2      2.5118106859602753      30.388189019341674           13.4298776893
   325   4      2.5124554427098018      99.274902129194885      13.808564961699998
   326   2      2.5124554427098018      99.274902129194885      11.293897032299999
   327   2      2.5124554427098018      99.274902129194885      15.579784652299999
   328   2      2.5427209990955721      25.773944675753764      5.0635815537999997
   329   2      2.5427209990955721      94.658568113340365      5.0635815537999997
   330   2      2.5427209997328406       60.21625639410081      5.0635815537999997
   331   2      2.5427209997328406      129.10087983168742      5.0635815537999997
   332   3      2.5668440322339663      124.56642772641914           11.8416575997
   333   3      2.5668440322339663      124.56642772641914           16.1275452197
   334   2      2.5947404844180633      55.579364050412913           13.4298776893
   335   4      2.6183427907248493      12.094175306502686      13.808564961699998
   336   2      2.6183427907248493      12.094175306502686      11.293897032299999
   337   2      2.6183427907248493      12.094175306502686      15.579784652299999
   338   2      2.6205878650086039      80.971240213790566           13.4298776893
   339   4      2.6582992264355783      48.080542533356621      5.2105475048000001
   340   2      2.6582992264355783      48.080542533356621               2.9496935
   341   2      2.6582992264355783      48.080542533356621      7.0523489108000001
   342   4      2.6582992264355751      116.96516597094298      5.2105475048000001
   343   2      2.6582992264355751      116.96516597094298               2.9496935
   344   2      2.6582992264355751      116.96516597094298      7.0523489108000001
   345   1      2.6582992268814727      13.638230815200668      3.0874183849999999
   346   1      2.6582992268814727      13.638230815200668      7.1900737958000001
   347   1      2.6582992268814754      82.522854252787297      3.0874183849999999
   348   1      2.6582992268814754      82.522854252787297      7.1900737958000001
   349   3      2.6756212112822926       37.38023204569464           11.8416575997
   350   3      2.6756212112822926       37.38023204569464           16.1275452197
   351   2      2.6762659680323115       106.2669451555476           13.4298776893
   352   4      2.7300098008069433      62.671757642918969      13.808564961699998
   353   2      2.7300098008069433      62.671757642918969      11.293897032299999
   354   2      2.7300098008069433      62.671757642918969      15.579784652299999
   355   2      2.7306545575574535      131.55847075277237           13.4298776893
   356   2      2.7738774535842126      1.5025169544563792      5.0635815537999997
   357   2      2.7738774535842117      70.387140392042753      5.0635815537999997