(written by ASE)

3486 atoms
4 atom types

0.0      62.075730588305483  xlo xhi
0.0      62.075730588305483  ylo yhi
0.0      63.177851719700001  zlo zhi

Masses

     1       137.3269999646734 # Ba
     2      15.998999995884349 # O
     3      207.19999994669897 # Pb
     4      47.866999987686484 # Ti

Atoms # atomic

     1   2  7.0323944112311169e-11      4.2324361760866873      5.0635815537999997
     2   2  7.0324703823432298e-11       12.69730852981529      5.0635815537999997
     3   2  7.0324488875793256e-11      18.340556765115728      5.0635815537999997
     4   2  7.0324604189725936e-11      43.735173823190202      5.0635815537999997
     5   2  7.0351502136053319e-11      1.4108120592139928      5.0635815537999997
     6   2  7.0351529006402758e-11      7.0540602945144935      5.0635815537999997
     7   2  7.0351075848037624e-11      9.8756844113869189      5.0635815537999997
     8   2  7.0349809504819921e-11      15.518932646687427      5.0635815537999997
     9   2  7.0349988598259671e-11      21.162180881987894      5.0635815537999997
    10   2  7.0349937350033138e-11      23.983805000416002      5.0635815537999997
    11   2   7.034991520811208e-11      26.805429117288412      5.0635815537999997
    12   2  7.0350904525630459e-11      29.627053235716527      5.0635815537999997
    13   2  7.0351313400153478e-11      32.448677352588923      5.0635815537999997
    14   2  7.0348697712929973e-11      35.270301471016971      5.0635815537999997
    15   2  7.0351061477149152e-11      38.091925587889406      5.0635815537999997
    16   2  7.0348802855639129e-11      40.913549706317525      5.0635815537999997
    17   2  7.0349412965522968e-11       46.55679794161798      5.0635815537999997
    18   2  7.0351345713298059e-11      49.378422058490429      5.0635815537999997
    19   2  7.0351851723309265e-11      52.200046176918498      5.0635815537999997
    20   2  7.0349012658803908e-11      55.021670293790898      5.0635815537999997
    21   2  7.0348656635926963e-11      57.843294412218995      5.0635815537999997
    22   2  7.0349370285100406e-11      60.664918529091402      5.0635815537999997
    23   2     0.92638515041694525      1.0162909878870998           13.4298776893
    24   4     0.92638515041694536      2.9502665612762007      13.808564961699998
    25   2     0.92638515041694536      2.9502665612762007      11.293897032299999
    26   2     0.92638515041694536      2.9502665612762007      15.579784652299999
    27   4     0.92638515041694591      6.8356188378871581      13.808564961699998
    28   2     0.92638515041694591      6.8356188378871581      11.293897032299999
    29   2     0.92638515041694591      6.8356188378871581      15.579784652299999
    30   2     0.92638515041694414      8.7753947878872491           13.4298776893
    31   4     0.92638515041694491      14.591822449581704      13.808564961699998
    32   2     0.92638515041694491      14.591822449581704      11.293897032299999
    33   2     0.92638515041694491      14.591822449581704      15.579784652299999
    34   2     0.92638515041694458      16.534498587887182           13.4298776893
    35   2     0.92638515041694391       20.41115029958176           13.4298776893
    36   4     0.92638515041694469      22.353826437887129      13.808564961699998
    37   2     0.92638515041694469      22.353826437887129      11.293897032299999
    38   2     0.92638515041694469      22.353826437887129      15.579784652299999
    39   2     0.92638515041694525      28.170254099581694           13.4298776893
    40   2     0.92638515041694336      39.811809987887194           13.4298776893
    41   4     0.92638515041694558      45.631137837887252      13.808564961699998
    42   2     0.92638515041694558      45.631137837887252      11.293897032299999
    43   2     0.92638515041694558      45.631137837887252      15.579784652299999
    44   2     0.92638515041694847      47.570913787887122           13.4298776893
    45   4     0.92638515041695069      53.390241637887186      13.808564961699998
    46   2     0.92638515041695069      53.390241637887186      11.293897032299999
    47   2     0.92638515041695069      53.390241637887186      15.579784652299999
    48   2     0.92638515041716551      4.8842421346650804           13.4298776893
    49   2     0.92638515041716607      12.643345934665232           13.4298776893
    50   4     0.92638515041716607      18.459773596359796      13.808564961699998
    51   2     0.92638515041716607      18.459773596359796      11.293897032299999
    52   2     0.92638515041716607      18.459773596359796      15.579784652299999
    53   4     0.92638515041716496      26.227577961276101      13.808564961699998
    54   2     0.92638515041716496      26.227577961276101      11.293897032299999
    55   2     0.92638515041716496      26.227577961276101      15.579784652299999
    56   4      0.9263851504171664      30.104229672970572      13.808564961699998
    57   2      0.9263851504171664      30.104229672970572      11.293897032299999
    58   2      0.9263851504171664      30.104229672970572      15.579784652299999
    59   2     0.92638515041716729      32.044005622970666           13.4298776893
    60   4     0.92638515041716718      33.986681761276252      13.808564961699998
    61   2     0.92638515041716718      33.986681761276252      11.293897032299999
    62   2     0.92638515041716718      33.986681761276252      15.579784652299999
    63   2     0.92638515041716496      35.926457711276122           13.4298776893
    64   4     0.92638515041716607      41.745785561276179      13.808564961699998
    65   2     0.92638515041716607      41.745785561276179      11.293897032299999
    66   2     0.92638515041716607      41.745785561276179      15.579784652299999
    67   2     0.92638515041716563      43.682661322970667           13.4298776893
    68   4      0.9263851504171694      49.499088984665228      13.808564961699998
    69   2      0.9263851504171694      49.499088984665228      11.293897032299999
    70   2      0.9263851504171694      49.499088984665228      15.579784652299999
    71   2     0.92638515041716918      55.315516646359796           13.4298776893
    72   4     0.92638515041717173      57.263993161276154      13.808564961699998
    73   2     0.92638515041717173      57.263993161276154      11.293897032299999
    74   2     0.92638515041717173      57.263993161276154      15.579784652299999
    75   4     0.92638515041717218      61.137744684665236      13.808564961699998
    76   2     0.92638515041717218      61.137744684665236      11.293897032299999
    77   2     0.92638515041717218      61.137744684665236      15.579784652299999
    78   2      0.9263851504174907      51.421463804832293           13.4298776893
    79   4     0.92638515041760627      37.834331589915784      13.808564961699998
    80   2     0.92638515041760627      37.834331589915784      11.293897032299999
    81   2     0.92638515041760627      37.834331589915784      15.579784652299999
    82   2     0.92638515041794012      24.235598621777413           13.4298776893
    83   4     0.92638515041826752      10.628165088722573      13.808564961699998
    84   2     0.92638515041826752      10.628165088722573      11.293897032299999
    85   2     0.92638515041826752      10.628165088722573      15.579784652299999
    86   2     0.92638515041859681      59.119663650417188           13.4298776893
    87   4      1.4108120585065431      31.037865294152965      5.2105475048000001
    88   2      1.4108120585065431      31.037865294152965               2.9496935
    89   2      1.4108120585065431      31.037865294152965      7.0523489108000001
    90   4      1.4108120585065433      47.967610000054506      5.2105475048000001
    91   2      1.4108120585065433      47.967610000054506               2.9496935
    92   2      1.4108120585065433      47.967610000054506      7.0523489108000001
    93   4      1.4108120585065527      8.4648723529509891      5.2105475048000001
    94   2      1.4108120585065527      8.4648723529509891               2.9496935
    95   2      1.4108120585065527      8.4648723529509891      7.0523489108000001
    96   4      1.4108120585065849      2.8216241176505501      5.2105475048000001
    97   2      1.4108120585065849      2.8216241176505501               2.9496935
    98   2      1.4108120585065849      2.8216241176505501      7.0523489108000001
    99   4      1.4108120585065835      25.394617058852528      5.2105475048000001
   100   2      1.4108120585065835      25.394617058852528               2.9496935
   101   2      1.4108120585065835      25.394617058852528      7.0523489108000001
   102   4       1.410812058506582      36.681113529453405      5.2105475048000001
   103   2       1.410812058506582      36.681113529453405               2.9496935
   104   2       1.410812058506582      36.681113529453405      7.0523489108000001
   105   4      1.4108120585065846      53.610858235354939      5.2105475048000001
   106   2      1.4108120585065846      53.610858235354939               2.9496935
   107   2      1.4108120585065846      53.610858235354939      7.0523489108000001
   108   4      1.4108120585066133      14.108120588251428      5.2105475048000001
   109   2      1.4108120585066133      14.108120588251428               2.9496935
   110   2      1.4108120585066133      14.108120588251428      7.0523489108000001
   111   4      1.4108120585066255      19.751368823551868      5.2105475048000001
   112   2      1.4108120585066255      19.751368823551868               2.9496935
   113   2      1.4108120585066255      19.751368823551868      7.0523489108000001
   114   4      1.4108120585066246      59.254106470655387      5.2105475048000001
   115   2      1.4108120585066246      59.254106470655387               2.9496935
   116   2      1.4108120585066246      59.254106470655387      7.0523489108000001
   117   4      1.4108120585066537      42.324361764753839      5.2105475048000001
   118   2      1.4108120585066537      42.324361764753839               2.9496935
   119   2      1.4108120585066537      42.324361764753839      7.0523489108000001
   120   1      1.4108120592843785  2.2061540734458383e-13      3.0874183849999999
   121   1      1.4108120592843785  2.2061540734458383e-13      7.1900737958000001
   122   1      1.4108120592843794      16.929744705901758      3.0874183849999999
   123   1      1.4108120592843794      16.929744705901758      7.1900737958000001
   124   1      1.4108120592843805      39.502737647103736      3.0874183849999999
   125   1      1.4108120592843805      39.502737647103736      7.1900737958000001
   126   1      1.4108120592843956      22.572992941202198      3.0874183849999999
   127   1      1.4108120592843956      22.572992941202198      7.1900737958000001
   128   1      1.4108120592843962      45.145985882404176      3.0874183849999999
   129   1      1.4108120592843962      45.145985882404176      7.1900737958000001
   130   1      1.4108120592843933      56.432482353005263      3.0874183849999999
   131   1      1.4108120592843933      56.432482353005263      7.1900737958000001
   132   1      1.4108120592844338      5.6432482353004945      3.0874183849999999
   133   1      1.4108120592844338      5.6432482353004945      7.1900737958000001
   134   1      1.4108120592844335      11.286496470600989      3.0874183849999999
   135   1      1.4108120592844335      11.286496470600989      7.1900737958000001
   136   1      1.4108120592844342      28.216241176502496      3.0874183849999999
   137   1      1.4108120592844342      28.216241176502496      7.1900737958000001
   138   1      1.4108120592844613      33.859489411803295      3.0874183849999999
   139   1      1.4108120592844613      33.859489411803295      7.1900737958000001
   140   1      1.4108120592844644      50.789234117704609      3.0874183849999999
   141   1      1.4108120592844644      50.789234117704609      7.1900737958000001
   142   2       2.821624117720571      4.2324361768645229      5.0635815537999997
   143   2      2.8216241177205843      12.697308529037455      5.0635815537999997
   144   2      2.8216241177205874      26.805429118066495      5.0635815537999997
   145   2      2.8216241177205994      18.340556764337894      5.0635815537999997
   146   2      2.8216241177205963      29.627053234938991      5.0635815537999997
   147   2      2.8216241177205972      35.270301470239431      5.0635815537999997
   148   2      2.8216241177205981       43.73517382396804      5.0635815537999997
   149   2      2.8216241177205981      49.378422059268473      5.0635815537999997
   150   2       2.821624117720626      1.4108120584363579      5.0635815537999997
   151   2       2.821624117720626      9.8756844121649614      5.0635815537999997
   152   2      2.8216241177206238      21.162180882766059      5.0635815537999997
   153   2      2.8216241177206274      40.913549705539872      5.0635815537999997
   154   2      2.8216241177206256      46.556797940840532      5.0635815537999997
   155   2      2.8216241177206256      52.200046176140965      5.0635815537999997
   156   2      2.8216241177206278      57.843294411441413      5.0635815537999997
   157   2       2.821624117720654        15.5189326474654      5.0635815537999997
   158   2      2.8216241177206514       23.98380499963833      5.0635815537999997
   159   2      2.8216241177206527      32.448677353366939      5.0635815537999997
   160   2      2.8216241177206531        38.0919255886676      5.0635815537999997
   161   2      2.8216241177206589      55.021670294568914      5.0635815537999997
   162   2      2.8216241177206816      7.0540602937366454      5.0635815537999997
   163   2       2.821624117720678      60.664918529869183      5.0635815537999997
   164   3      2.8661611004170378      1.0075904229706116           11.8416575997
   165   3      2.8661611004170378      1.0075904229706116           16.1275452197
   166   2      2.8661611004170378      2.9502665612760901           13.4298776893
   167   3      2.8661611004170378      4.8958428878870643           11.8416575997
   168   3      2.8661611004170378      4.8958428878870643           16.1275452197
   169   2      2.8661611004170386      6.8269182729706701           13.4298776893
   170   3      2.8661611004170391      8.7666942229705427           11.8416575997
   171   3      2.8661611004170391      8.7666942229705427           16.1275452197
   172   3      2.8661611004170369        12.6520464995815           11.8416575997
   173   3      2.8661611004170369        12.6520464995815           16.1275452197
   174   2      2.8661611004170373      14.591822449581592           13.4298776893
   175   3      2.8661611004170382      16.534498587886961           11.8416575997
   176   3      2.8661611004170382      16.534498587886961           16.1275452197
   177   2      2.8661611004170369      18.474274537887052           13.4298776893
   178   3      2.8661611004170373      20.408250111276153           11.8416575997
   179   3      2.8661611004170373      20.408250111276153           16.1275452197
   180   2      2.8661611004170382      22.353826437887019           13.4298776893
   181   2      2.8661611004170409      26.227577961276101           13.4298776893
   182   3        2.86616110041704      28.173154287886966           11.8416575997
   183   3        2.86616110041704      28.173154287886966           16.1275452197
   184   2      2.8661611004170382       30.11003004958156           13.4298776893
   185   3      2.8661611004170395      32.044005622970666           11.8416575997
   186   3      2.8661611004170395      32.044005622970666           16.1275452197
   187   2      2.8661611004170395      33.989581949581527           13.4298776893
   188   3      2.8661611004170404      35.929357899581625           11.8416575997
   189   3      2.8661611004170404      35.929357899581625           16.1275452197
   190   3      2.8661611004170382      39.806009611276089           11.8416575997
   191   3      2.8661611004170382      39.806009611276089           16.1275452197
   192   2        2.86616110041704      41.751585937887064           13.4298776893
   193   3      2.8661611004170413      43.682661322970674           11.8416575997
   194   3      2.8661611004170413      43.682661322970674           16.1275452197
   195   2      2.8661611004170413      45.628237649581536           13.4298776893
   196   3      2.8661611004170409      47.570913787887015           11.8416575997
   197   3      2.8661611004170409      47.570913787887015           16.1275452197
   198   2        2.86616110041704      49.507789549581503           13.4298776893
   199   2      2.8661611004170413      53.390241637886966           13.4298776893
   200   3      2.8661611004170413      55.330017587887056           11.8416575997
   201   3      2.8661611004170413      55.330017587887056           16.1275452197
   202   2      2.8661611004170413      57.263993161276154           13.4298776893
   203   2        2.86616110041704      61.149345437887114           13.4298776893
   204   3      2.8661611004173717      51.424363993137682           11.8416575997
   205   3      2.8661611004173717      51.424363993137682           16.1275452197
   206   2      2.8661611004176994      37.825631024999247           13.4298776893
   207   3      2.8661611004178087      24.238498810082852           11.8416575997
   208   3      2.8661611004178087      24.238498810082852           16.1275452197
   209   2       2.866161100418362      10.628165088722465           13.4298776893
   210   3      2.8661611004184664      59.119663650417188           11.8416575997
   211   3      2.8661611004184664      59.119663650417188           16.1275452197
   212   4      4.2324361761567912  2.2057190604754921e-13      5.2105475048000001
   213   2      4.2324361761567912  2.2057190604754921e-13               2.9496935
   214   2      4.2324361761567912  2.2057190604754921e-13      7.0523489108000001
   215   4      4.2324361761567895      39.502737647103736      5.2105475048000001
   216   2      4.2324361761567895      39.502737647103736               2.9496935
   217   2      4.2324361761567895      39.502737647103736      7.0523489108000001
   218   4      4.2324361761568179      5.6432482353004945      5.2105475048000001
   219   2      4.2324361761568179      5.6432482353004945               2.9496935
   220   2      4.2324361761568179      5.6432482353004945      7.0523489108000001
   221   4      4.2324361761568179      11.286496470600987      5.2105475048000001
   222   2      4.2324361761568179      11.286496470600987               2.9496935
   223   2      4.2324361761568179      11.286496470600987      7.0523489108000001
   224   4       4.232436176156817      16.929744705901459      5.2105475048000001
   225   2       4.232436176156817      16.929744705901459               2.9496935
   226   2       4.232436176156817      16.929744705901459      7.0523489108000001
   227   4      4.2324361761568161       22.57299294120196      5.2105475048000001
   228   2      4.2324361761568161       22.57299294120196               2.9496935
   229   2      4.2324361761568161       22.57299294120196      7.0523489108000001
   230   4      4.2324361761568197      28.216241176502496      5.2105475048000001
   231   2      4.2324361761568197      28.216241176502496               2.9496935
   232   2      4.2324361761568197      28.216241176502496      7.0523489108000001
   233   4      4.2324361761568197      33.859489411802969      5.2105475048000001
   234   2      4.2324361761568197      33.859489411802969               2.9496935
   235   2      4.2324361761568197      33.859489411802969      7.0523489108000001
   236   4      4.2324361761568188      45.145985882403963      5.2105475048000001
   237   2      4.2324361761568188      45.145985882403963               2.9496935
   238   2      4.2324361761568188      45.145985882403963      7.0523489108000001
   239   4      4.2324361761568197      50.789234117704474      5.2105475048000001
   240   2      4.2324361761568197      50.789234117704474               2.9496935
   241   2      4.2324361761568197      50.789234117704474      7.0523489108000001
   242   4      4.2324361761568206      56.432482353004993      5.2105475048000001
   243   2      4.2324361761568206      56.432482353004993               2.9496935
   244   2      4.2324361761568206      56.432482353004993      7.0523489108000001
   245   1       4.232436176934625      8.4648723529509891      3.0874183849999999
   246   1       4.232436176934625      8.4648723529509891      7.1900737958000001
   247   1      4.2324361769346259      31.037865294152965      3.0874183849999999
   248   1      4.2324361769346259      31.037865294152965      7.1900737958000001
   249   1      4.2324361769346233      47.967610000054506      3.0874183849999999
   250   1      4.2324361769346233      47.967610000054506      7.1900737958000001
   251   1      4.2324361769346526      2.8216241176501868      3.0874183849999999
   252   1      4.2324361769346526      2.8216241176501868      7.1900737958000001
   253   1      4.2324361769346543      14.108120588251195      3.0874183849999999
   254   1      4.2324361769346543      14.108120588251195      7.1900737958000001
   255   1      4.2324361769346543      19.751368823551729      3.0874183849999999
   256   1      4.2324361769346543      19.751368823551729      7.1900737958000001
   257   1      4.2324361769346517      25.394617058852219      3.0874183849999999
   258   1      4.2324361769346517      25.394617058852219      7.1900737958000001
   259   1      4.2324361769346508      36.681113529453235      3.0874183849999999
   260   1      4.2324361769346508      36.681113529453235      7.1900737958000001
   261   1      4.2324361769346517      42.324361764753704      3.0874183849999999
   262   1      4.2324361769346517      42.324361764753704      7.1900737958000001
   263   1      4.2324361769346517      53.610858235354712      3.0874183849999999
   264   1      4.2324361769346517      53.610858235354712      7.1900737958000001
   265   1      4.2324361769346517      59.254106470655209      3.0874183849999999
   266   1      4.2324361769346517      59.254106470655209      7.1900737958000001
   267   2      4.8059370504169108      1.0162909878870994           13.4298776893
   268   4      4.8059370504169108      6.8327186495816621      13.808564961699998
   269   2      4.8059370504169108      6.8327186495816621      11.293897032299999
   270   2      4.8059370504169108      6.8327186495816621      15.579784652299999
   271   2       4.805937050416909      12.652046499581717           13.4298776893
   272   4      4.8059370504169072      30.110030049581781      13.808564961699998
   273   2      4.8059370504169072      30.110030049581781      11.293897032299999
   274   2      4.8059370504169072      30.110030049581781      15.579784652299999
   275   2       4.805937050416909      32.052706187887154           13.4298776893
   276   2      4.8059370504169081      35.929357899581731           13.4298776893
   277   4      4.8059370504169125      41.748685749581789      13.808564961699998
   278   2      4.8059370504169125      41.748685749581789      11.293897032299999
   279   2      4.8059370504169125      41.748685749581789      15.579784652299999
   280   2      4.8059370504169108      43.688461699581666           13.4298776893
   281   4       4.805937050416909      49.507789549581723      13.808564961699998
   282   2       4.805937050416909      49.507789549581723      11.293897032299999
   283   2       4.805937050416909      49.507789549581723      15.579784652299999
   284   4      4.8059370504169108      61.149345437887227      13.808564961699998
   285   2      4.8059370504169108      61.149345437887227      11.293897032299999
   286   2      4.8059370504169108      61.149345437887227      15.579784652299999
   287   4       4.805937050417131      2.9444661846652092      13.808564961699998
   288   2       4.805937050417131      2.9444661846652092      11.293897032299999
   289   2       4.805937050417131      2.9444661846652092      15.579784652299999
   290   2      4.8059370504171319      4.8900425112760733           13.4298776893
   291   2      4.8059370504171319       8.763794034665267           13.4298776893
   292   4       4.805937050417131      14.583121884665326      13.808564961699998
   293   2       4.805937050417131      14.583121884665326      11.293897032299999
   294   2       4.805937050417131      14.583121884665326      15.579784652299999
   295   2      4.8059370504171293      16.525798022970694           13.4298776893
   296   4      4.8059370504171302       18.46847416127606      13.808564961699998
   297   2      4.8059370504171302       18.46847416127606      11.293897032299999
   298   2      4.8059370504171302       18.46847416127606      15.579784652299999
   299   2       4.805937050417131      20.408250111276153           13.4298776893
   300   4      4.8059370504171302      22.345125872970641      13.808564961699998
   301   2      4.8059370504171302      22.345125872970641      11.293897032299999
   302   2      4.8059370504171302      22.345125872970641      15.579784652299999
   303   4       4.805937050417131      26.221777584665219      13.808564961699998
   304   2       4.805937050417131      26.221777584665219      11.293897032299999
   305   2       4.805937050417131      26.221777584665219      15.579784652299999
   306   2      4.8059370504171319      28.167353911276198           13.4298776893
   307   4      4.8059370504171293      33.983781572970756      13.808564961699998
   308   2      4.8059370504171293      33.983781572970756      11.293897032299999
   309   2      4.8059370504171293      33.983781572970756      15.579784652299999
   310   2      4.8059370504171302      39.803109422970707           13.4298776893
   311   4       4.805937050417131      45.622437272970764      13.808564961699998
   312   2       4.805937050417131      45.622437272970764      11.293897032299999
   313   2       4.805937050417131      45.622437272970764      15.579784652299999
   314   2      4.8059370504171319      47.562213222970634           13.4298776893
   315   4      4.8059370504171302      53.381541072970691      13.808564961699998
   316   2      4.8059370504171302      53.381541072970691      11.293897032299999
   317   2      4.8059370504171302      53.381541072970691      15.579784652299999
   318   2      4.8059370504171293      55.330017587887163           13.4298776893
   319   4      4.8059370504171319      57.263993161276154      13.808564961699998
   320   2      4.8059370504171319      57.263993161276154      11.293897032299999
   321   2      4.8059370504171319      57.263993161276154      15.579784652299999
   322   2      4.8059370504174614      51.433064558054113           13.4298776893
   323   4      4.8059370504175707      37.831431401610388      13.808564961699998
   324   2      4.8059370504175707      37.831431401610388      11.293897032299999
   325   2      4.8059370504175707      37.831431401610388      15.579784652299999
   326   2      4.8059370504179046      24.221097680250043           13.4298776893
   327   4      4.8059370504182342      10.636865653638953      13.808564961699998
   328   2      4.8059370504182342      10.636865653638953      11.293897032299999
   329   2      4.8059370504182342      10.636865653638953      15.579784652299999
   330   2      4.8059370504183443      59.119663650417188           13.4298776893
   331   2      5.6432482353708311      4.2324361760866873      5.0635815537999997
   332   2       5.643248235370832       12.69730852981529      5.0635815537999997
   333   2      5.6432482353708329      18.340556765115732      5.0635815537999997
   334   2      5.6432482353708311      21.162180881988224      5.0635815537999997
   335   2      5.6432482353708586      26.805429117288664      5.0635815537999997
   336   2      5.6432482353708586       35.27030147101727      5.0635815537999997
   337   2      5.6432482353708577      43.735173823190202      5.0635815537999997
   338   2      5.6432482353708737      1.4108120592141931      5.0635815537999997
   339   2      5.6432482353708719      29.627053235716826      5.0635815537999997
   340   2      5.6432482353708737      49.378422058490635      5.0635815537999997
   341   2      5.6432482353708737      57.843294412219237      5.0635815537999997
   342   2      5.6432482353708942      9.8756844113871267      5.0635815537999997
   343   2      5.6432482353708959      38.091925587889762      5.0635815537999997
   344   2      5.6432482353708924      46.556797941618143      5.0635815537999997
   345   2      5.6432482353708942      52.200046176918804      5.0635815537999997
   346   2      5.6432482353708924      60.664918529091736      5.0635815537999997
   347   2      5.6432482353708986      23.983805000416034      5.0635815537999997
   348   2      5.6432482353709261      15.518932646687563      5.0635815537999997
   349   2      5.6432482353709306      32.448677352589101      5.0635815537999997
   350   2      5.6432482353709306      40.913549706317703      5.0635815537999997
   351   2      5.6432482353709554       7.054060294514632      5.0635815537999997
   352   2      5.6432482353709545      55.021670293791082      5.0635815537999997
   353   3      6.7457130004170036      1.0162909878870994           11.8416575997
   354   3      6.7457130004170036      1.0162909878870994           16.1275452197
   355   2      6.7457130004170036      2.9502665612762011           13.4298776893
   356   2      6.7457130004170027      6.8356188378871581           13.4298776893
   357   3      6.7457130004170036      8.7724945995817549           11.8416575997