(written by ASE)

17647 atoms
4 atom types

0.0      139.66326832850001  xlo xhi
0.0      139.66326832850001  ylo yhi
0.0      63.177851719700001  zlo zhi

Masses

     1       137.3269999646734 # Ba
     2      15.998999995884349 # O
     3      207.19999994669897 # Pb
     4      47.866999987686484 # Ti

Atoms # atomic

     1   4     0.19951895443935136      51.276371372080447      5.2105475048000001
     2   2     0.19951895443935136      51.276371372080447               2.9496935
     3   2     0.19951895443935136      51.276371372080447      7.0523489108000001
     4   4     0.19951895443938475      131.08395327408067      5.2105475048000001
     5   2     0.19951895443938475      131.08395327408067               2.9496935
     6   2     0.19951895443938475      131.08395327408067      7.0523489108000001
     7   4     0.19951895443960058      11.372580421079794      5.2105475048000001
     8   2     0.19951895443960058      11.372580421079794               2.9496935
     9   2     0.19951895443960058      11.372580421079794      7.0523489108000001
    10   4      0.1995189544396011      31.324475896579862      5.2105475048000001
    11   2      0.1995189544396011      31.324475896579862               2.9496935
    12   2      0.1995189544396011      31.324475896579862      7.0523489108000001
    13   4     0.19951895443959541      71.228266847579889      5.2105475048000001
    14   2     0.19951895443959541      71.228266847579889               2.9496935
    15   2     0.19951895443959541      71.228266847579889      7.0523489108000001
    16   4     0.19951895443960857      91.180162323079841      5.2105475048000001
    17   2     0.19951895443960857      91.180162323079841               2.9496935
    18   2     0.19951895443960857      91.180162323079841      7.0523489108000001
    19   4     0.19951895443960038      111.13205779857992      5.2105475048000001
    20   2     0.19951895443960038      111.13205779857992               2.9496935
    21   2     0.19951895443960038      111.13205779857992      7.0523489108000001
    22   2     0.19951895487959107      1.3966326836603333      5.0635815537999997
    23   2     0.19951895487959209      21.348528159160264      5.0635815537999997
    24   2     0.19951895487959279      41.300423634660199      5.0635815537999997
    25   2     0.19951895487959387       61.25231911016013      5.0635815537999997
    26   2     0.19951895487959492      81.204214585660054      5.0635815537999997
    27   2     0.19951895487960095      101.15611006116023      5.0635815537999997
    28   2     0.19951895487958995      121.10800553666017      5.0635815537999997
    29   2     0.59855686427941179       4.189898049460135      5.0635815537999997
    30   2     0.59855686427941568       44.09368900046011      5.0635815537999997
    31   2     0.59855686427941035      64.045584475960112      5.0635815537999997
    32   2     0.59855686427942389      103.94937542695997      5.0635815537999997
    33   2     0.59855686427965982       24.14179352495988      5.0635815537999997
    34   2      0.5985568642796566      83.997479951459923      5.0635815537999997
    35   2     0.59855686427966015      123.90127090246003      5.0635815537999997
    36   1      0.5985568647195264          14.16584578754      3.0874183849999999
    37   1      0.5985568647195264          14.16584578754      7.1900737958000001
    38   1     0.59855686471952996      34.117741263039932      3.0874183849999999
    39   1     0.59855686471952996      34.117741263039932      7.1900737958000001
    40   1     0.59855686471953173      54.069636738539984      3.0874183849999999
    41   1     0.59855686471953173      54.069636738539984      7.1900737958000001
    42   1     0.59855686471953495      74.021532214039979      3.0874183849999999
    43   1     0.59855686471953495      74.021532214039979      7.1900737958000001
    44   1     0.59855686471953107      93.973427689540102      3.0874183849999999
    45   1     0.59855686471953107      93.973427689540102      7.1900737958000001
    46   1     0.59855686471952851      113.92532316504003      3.0874183849999999
    47   1     0.59855686471952851      113.92532316504003      7.1900737958000001
    48   1     0.59855686471952041      133.87721864054001      3.0874183849999999
    49   1     0.59855686471952041      133.87721864054001      7.1900737958000001
    50   2     0.95695211584812534      32.000442770575297           13.4298776893
    51   4     0.95695558109691403      33.940218720572766      13.808564961699998
    52   2     0.95695558109691403      33.940218720572766      11.293897032299999
    53   2     0.95695558109691403      33.940218720572766      15.579784652299999
    54   2     0.95695904634569895      35.879994670569481           13.4298776893
    55   4     0.95696251159424572      37.819770620566942      13.808564961699998
    56   2     0.95696251159424572      37.819770620566942      11.293897032299999
    57   2     0.95696251159424572      37.819770620566942      15.579784652299999
    58   2     0.95696597684352935      39.759546570563174           13.4298776893
    59   4     0.95696944209182178      41.699322520560393      13.808564961699998
    60   2     0.95696944209182178      41.699322520560393      11.293897032299999
    61   2     0.95696944209182178      41.699322520560393      15.579784652299999
    62   2     0.95697290734110974      43.639098470556611           13.4298776893
    63   4     0.95697637258965296      45.578874420554072      13.808564961699998
    64   2     0.95697637258965296      45.578874420554072      11.293897032299999
    65   2     0.95697637258965296      45.578874420554072      15.579784652299999
    66   2      0.9569798378384371      47.518650370550795           13.4298776893
    67   4     0.95698330308722979      49.458426320548263      13.808564961699998
    68   2     0.95698330308722979      49.458426320548263      11.293897032299999
    69   2     0.95698330308722979      49.458426320548263      15.579784652299999
    70   2     0.95698676833601815      51.398202270544978           13.4298776893
    71   4     0.95699023358455781      53.337978220541956      13.808564961699998
    72   2     0.95699023358455781      53.337978220541956      11.293897032299999
    73   2     0.95699023358455781      53.337978220541956      15.579784652299999
    74   2     0.95699369883334628      55.277754170538671           13.4298776893
    75   4     0.95699716408238544      57.217530120535642      13.808564961699998
    76   2     0.95699716408238544      57.217530120535642      11.293897032299999
    77   2     0.95699716408238544      57.217530120535642      15.579784652299999
    78   2     0.95700062933092733      59.157306070532364           13.4298776893
    79   4     0.95700409458020874      61.097082020529328      13.808564961699998
    80   2     0.95700409458020874      61.097082020529328      11.293897032299999
    81   2     0.95700409458020874      61.097082020529328      15.579784652299999
    82   2     0.95700755982850128      63.036857970526547           13.4298776893
    83   4      0.9570110250770395       64.97663392052327      13.808564961699998
    84   2      0.9570110250770395       64.97663392052327      11.293897032299999
    85   2      0.9570110250770395       64.97663392052327      15.579784652299999
    86   2     0.95701449032607377      66.916409870519985           13.4298776893
    87   4     0.95701795557511515      68.856185820516217      13.808564961699998
    88   2     0.95701795557511515      68.856185820516217      11.293897032299999
    89   2     0.95701795557511515      68.856185820516217      15.579784652299999
    90   2      0.9570214208231631      70.795961770513685           13.4298776893
    91   4     0.95702488607245029        72.7357377205104      13.808564961699998
    92   2     0.95702488607245029        72.7357377205104      11.293897032299999
    93   2     0.95702488607245029        72.7357377205104      15.579784652299999
    94   2     0.95702835132124153      74.675513670507129           13.4298776893
    95   4     0.95703181657027148      76.615289620504342      13.808564961699998
    96   2     0.95703181657027148      76.615289620504342      11.293897032299999
    97   2     0.95703181657027148      76.615289620504342      15.579784652299999
    98   2     0.95703528181905995      78.555065570501057           13.4298776893
    99   4     0.95703874706735237      80.494841520498269      13.808564961699998
   100   2     0.95703874706735237      80.494841520498269      11.293897032299999
   101   2     0.95703874706735237      80.494841520498269      15.579784652299999
   102   2     0.95704221231639508       82.43461747049524           13.4298776893
   103   4     0.95704567756519066      84.374393420491955      13.808564961699998
   104   2     0.95704567756519066      84.374393420491955      11.293897032299999
   105   2     0.95704567756519066      84.374393420491955      15.579784652299999
   106   2      0.9570491428142206      86.314169370488685           13.4298776893
   107   4      0.9570526080627717      88.253945320486139      13.808564961699998
   108   2      0.9570526080627717      88.253945320486139      11.293897032299999
   109   2      0.9570526080627717      88.253945320486139      15.579784652299999
   110   2     0.95705607331179743      90.193721270482385           13.4298776893
   111   4     0.95705953856059145      92.133497220479825      13.808564961699998
   112   2     0.95705953856059145      92.133497220479825      11.293897032299999
   113   2     0.95705953856059145      92.133497220479825      15.579784652299999
   114   2     0.95706300380912124      94.073273170476568           13.4298776893
   115   4     0.95706646905791959      96.013049120473525      13.808564961699998
   116   2     0.95706646905791959      96.013049120473525      11.293897032299999
   117   2     0.95706646905791959      96.013049120473525      15.579784652299999
   118   2      0.9570699343066994      97.952825070470254           13.4298776893
   119   4     0.95707339955574644      99.892601020467225      13.808564961699998
   120   2     0.95707339955574644      99.892601020467225      11.293897032299999
   121   2     0.95707339955574644      99.892601020467225      15.579784652299999
   122   2     0.95707686480428478      101.83237697046394           13.4298776893
   123   4     0.95708033005307735      103.77215292046141      13.808564961699998
   124   2     0.95708033005307735      103.77215292046141      11.293897032299999
   125   2     0.95708033005307735      103.77215292046141      15.579784652299999
   126   2     0.95708379530185728      105.71192887045814           13.4298776893
   127   4     0.95708726055040549      107.65170482045509      13.808564961699998
   128   2     0.95708726055040549      107.65170482045509      11.293897032299999
   129   2     0.95708726055040549      107.65170482045509      15.579784652299999
   130   2     0.95709072579918675      109.59148077045181           13.4298776893
   131   4     0.95709419104848814      111.53125672044854      13.808564961699998
   132   2     0.95709419104848814      111.53125672044854      11.293897032299999
   133   2     0.95709419104848814      111.53125672044854      15.579784652299999
   134   2     0.95709765629701371      113.47103267044551           13.4298776893
   135   4     0.95710112154580496      115.41080862044272      13.808564961699998
   136   2     0.95710112154580496      115.41080862044272      11.293897032299999
   137   2     0.95710112154580496      115.41080862044272      15.579784652299999
   138   2     0.95710458679458477      117.35058457043945           13.4298776893
   139   4     0.95710805204338312      119.29036052043639      13.808564961699998
   140   2     0.95710805204338312      119.29036052043639      11.293897032299999
   141   2     0.95710805204338312      119.29036052043639      15.579784652299999
   142   2     0.95711151729192845      121.23013647043314           13.4298776893
   143   4     0.95711498254071403      123.16991242043059      13.808564961699998
   144   2     0.95711498254071403      123.16991242043059      11.293897032299999
   145   2     0.95711498254071403      123.16991242043059      15.579784652299999
   146   2     0.95711844778950816      125.10968837042734           13.4298776893
   147   4     0.95712191303879812      127.04946432042428      13.808564961699998
   148   2     0.95712191303879812      127.04946432042428      11.293897032299999
   149   2     0.95712191303879812      127.04946432042428      15.579784652299999
   150   2      0.9571253782873137      128.98924027042102           13.4298776893
   151   4     0.95712884353587613      130.92901622041799      13.808564961699998
   152   2     0.95712884353587613      130.92901622041799      11.293897032299999
   153   2     0.95712884353587613      130.92901622041799      15.579784652299999
   154   2     0.95713230878465039      132.86879217041468           13.4298776893
   155   4     0.95713577403319283      134.80856812041216      13.808564961699998
   156   2     0.95713577403319283      134.80856812041216      11.293897032299999
   157   2     0.95713577403319283      134.80856812041216      15.579784652299999
   158   2     0.95713923928247724      136.74834407040839           13.4298776893
   159   4     0.95714270453128414      138.68812002040585      13.808564961699998
   160   2     0.95714270453128414      138.68812002040585      11.293897032299999
   161   2     0.95714270453128414      138.68812002040585      15.579784652299999
   162   2     0.95714616978005818     0.96462764190181516           13.4298776893
   163   4     0.95714963502884753      2.9044035918987836      13.808564961699998
   164   2     0.95714963502884753      2.9044035918987836      11.293897032299999
   165   2     0.95714963502884753      2.9044035918987836      15.579784652299999
   166   2     0.95715310027763634      4.8441795418955049           13.4298776893
   167   4     0.95715656552642503      6.7839554918929696      13.808564961699998
   168   2     0.95715656552642503      6.7839554918929696      11.293897032299999
   169   2     0.95715656552642503      6.7839554918929696      15.579784652299999
   170   2     0.95716003077546219      8.7237314418896901           13.4298776893
   171   4     0.95716349602375561      10.663507391886659      13.808564961699998
   172   2     0.95716349602375561      10.663507391886659      11.293897032299999
   173   2     0.95716349602375561      10.663507391886659      15.579784652299999
   174   2     0.95716696127254286       12.60328334188338           13.4298776893
   175   4     0.95717042652133277      14.543059291880844      13.808564961699998
   176   2     0.95717042652133277      14.543059291880844      11.293897032299999
   177   2     0.95717042652133277      14.543059291880844      15.579784652299999
   178   2     0.95717389176987522      16.482835241877563           13.4298776893
   179   4     0.95717735701916018      18.422611191874285      13.808564961699998
   180   2     0.95717735701916018      18.422611191874285      11.293897032299999
   181   2     0.95717735701916018      18.422611191874285      15.579784652299999
   182   2     0.95718082226795076      20.362387141871253           13.4298776893
   183   4     0.95718428751673812      22.302163091867975      13.808564961699998
   184   2     0.95718428751673812      22.302163091867975      11.293897032299999
   185   2     0.95718428751673812      22.302163091867975      15.579784652299999
   186   2     0.95718775276503054      24.241939041864946           13.4298776893
   187   4     0.95719121801406726      26.181714991862165      13.808564961699998
   188   2     0.95719121801406726      26.181714991862165      11.293897032299999
   189   2     0.95719121801406726      26.181714991862165      15.579784652299999
   190   2     0.95719468326285739       28.12149094185888           13.4298776893
   191   4     0.95719814851214213      30.061266891855851      13.808564961699998
   192   2     0.95719814851214213      30.061266891855851      11.293897032299999
   193   2     0.95719814851214213      30.061266891855851      15.579784652299999
   194   4     0.99759477345942527      56.862902105220321      5.2105475048000001
   195   2     0.99759477345942527      56.862902105220321               2.9496935
   196   2     0.99759477345942527      56.862902105220321      7.0523489108000001
   197   4     0.99759477345954928      16.959111154220217      5.2105475048000001
   198   2     0.99759477345954928      16.959111154220217               2.9496935
   199   2     0.99759477345954928      16.959111154220217      7.0523489108000001
   200   4     0.99759477345955283      36.911006629720148      5.2105475048000001
   201   2     0.99759477345955283      36.911006629720148               2.9496935
   202   2     0.99759477345955283      36.911006629720148      7.0523489108000001
   203   4     0.99759477345955072      76.814797580720253      5.2105475048000001
   204   2     0.99759477345955072      76.814797580720253               2.9496935
   205   2     0.99759477345955072      76.814797580720253      7.0523489108000001
   206   4     0.99759477345955527      96.766693056220191      5.2105475048000001
   207   2     0.99759477345955527      96.766693056220191               2.9496935
   208   2     0.99759477345955527      96.766693056220191      7.0523489108000001
   209   4      0.9975947734595646      136.67048400722004      5.2105475048000001
   210   2      0.9975947734595646      136.67048400722004               2.9496935
   211   2      0.9975947734595646      136.67048400722004      7.0523489108000001
   212   4     0.99759477345968073      116.71858853172012      5.2105475048000001
   213   2     0.99759477345968073      116.71858853172012               2.9496935
   214   2     0.99759477345968073      116.71858853172012      7.0523489108000001
   215   2     0.99759477389934981      86.790745318800433      5.0635815537999997
   216   2     0.99759477389941631      26.935058892299899      5.0635815537999997
   217   2     0.99759477389941631      66.838849843300068      5.0635815537999997
   218   2     0.99759477389940843          106.7426407943      5.0635815537999997
   219   2     0.99759477389941309      126.69453626979993      5.0635815537999997
   220   2     0.99759477389966245      6.9831634167999672      5.0635815537999997
   221   2       0.997594773899666       46.88695436780008      5.0635815537999997
   222   2      1.3966326832993607      9.7764287826005756      5.0635815537999997
   223   2      1.3966326832993603      49.680219733600438      5.0635815537999997
   224   2      1.3966326832994818      129.48780163560042      5.0635815537999997
   225   2      1.3966326832996094      29.728324258099949      5.0635815537999997
   226   2      1.3966326832996059      69.632115209099936      5.0635815537999997
   227   2      1.3966326832996119      89.584010684599903      5.0635815537999997
   228   2      1.3966326832996108      109.53590616009998      5.0635815537999997
   229   1       1.396632683739351      19.752376520680748      3.0874183849999999
   230   1       1.396632683739351      19.752376520680748      7.1900737958000001
   231   1       1.396632683739601      79.608062947180301      3.0874183849999999
   232   1       1.396632683739601      79.608062947180301      7.1900737958000001
   233   1      1.3966326837396075      119.51185389818015      3.0874183849999999
   234   1      1.3966326837396075      119.51185389818015      7.1900737958000001
   235   1      1.3966326837396472      39.704271996180182      3.0874183849999999
   236   1      1.3966326837396472      39.704271996180182      7.1900737958000001
   237   1      1.3966326837396441      59.656167471680121      3.0874183849999999
   238   1      1.3966326837396441      59.656167471680121      7.1900737958000001
   239   1      1.3966326837396554      99.559958422680225      3.0874183849999999
   240   1      1.3966326837396554      99.559958422680225      7.1900737958000001
   241   1      1.3966326837396645      139.46374937368009      3.0874183849999999
   242   1      1.3966326837396645      139.46374937368009      7.1900737958000001
   243   4      1.7956705924794953      2.5937464118600442      5.2105475048000001
   244   2      1.7956705924794953      2.5937464118600442               2.9496935
   245   2      1.7956705924794953      2.5937464118600442      7.0523489108000001
   246   4      1.7956705924794949      22.545641887360098      5.2105475048000001
   247   2      1.7956705924794949      22.545641887360098               2.9496935
   248   2      1.7956705924794949      22.545641887360098      7.0523489108000001
   249   4      1.7956705924795002      42.497537362860022      5.2105475048000001
   250   2      1.7956705924795002      42.497537362860022               2.9496935
   251   2      1.7956705924795002      42.497537362860022      7.0523489108000001
   252   4      1.7956705924794985       62.44943283836021      5.2105475048000001
   253   2      1.7956705924794985       62.44943283836021               2.9496935
   254   2      1.7956705924794985       62.44943283836021      7.0523489108000001
   255   4      1.7956705924794965      102.35322378936007      5.2105475048000001
   256   2      1.7956705924794965      102.35322378936007               2.9496935
   257   2      1.7956705924794965      102.35322378936007      7.0523489108000001
   258   4      1.7956705924794911      122.30511926485994      5.2105475048000001
   259   2      1.7956705924794911      122.30511926485994               2.9496935
   260   2      1.7956705924794911      122.30511926485994      7.0523489108000001
   261   4      1.7956705924797192      82.401328313860134      5.2105475048000001
   262   2      1.7956705924797192      82.401328313860134               2.9496935
   263   2      1.7956705924797192      82.401328313860134      7.0523489108000001
   264   2       1.795670592919612       12.56969414993991      5.0635815537999997
   265   2      1.7956705929196111      32.521589625439908      5.0635815537999997
   266   2      1.7956705929196071      52.473485100939961      5.0635815537999997
   267   2      1.7956705929196117      72.425380576439892      5.0635815537999997
   268   2      1.7956705929196191      92.377276051940001      5.0635815537999997
   269   2      1.7956705929196153      112.32917152743987      5.0635815537999997
   270   2      1.7956705929196171      132.28106700293992      5.0635815537999997
   271   2      2.1947085023194299      55.266750466740319      5.0635815537999997
   272   2      2.1947085023194259      135.07433236874053      5.0635815537999997
   273   2      2.1947085023196782      15.362959515739961      5.0635815537999997
   274   2      2.1947085023196813      35.314854991239891      5.0635815537999997
   275   2      2.1947085023196791      75.218645942240002      5.0635815537999997
   276   2      2.1947085023196853      95.170541417740182      5.0635815537999997
   277   2      2.1947085023196897      115.12243689324011      5.0635815537999997
   278   1      2.1947085027593949      45.290802729320561      3.0874183849999999
   279   1      2.1947085027593949      45.290802729320561      7.1900737958000001
   280   1      2.1947085027594042      85.194593680320423      3.0874183849999999
   281   1      2.1947085027594042      85.194593680320423      7.1900737958000001
   282   1      2.1947085027594224      5.3870117783200797      3.0874183849999999
   283   1      2.1947085027594224      5.3870117783200797      7.1900737958000001
   284   1      2.1947085027594238      25.338907253820015      3.0874183849999999
   285   1      2.1947085027594238      25.338907253820015      7.1900737958000001
   286   1      2.1947085027594211      65.242698204820059      3.0874183849999999
   287   1      2.1947085027594211      65.242698204820059      7.1900737958000001
   288   1      2.1947085027594246      105.14648915582016      3.0874183849999999
   289   1      2.1947085027594246      105.14648915582016      7.1900737958000001
   290   1       2.194708502759418      125.09838463131996      3.0874183849999999
   291   1       2.194708502759418      125.09838463131996      7.1900737958000001
   292   4      2.5937464114994433      48.084068096000408      5.2105475048000001
   293   2      2.5937464114994433      48.084068096000408               2.9496935
   294   2      2.5937464114994433      48.084068096000408      7.0523489108000001
   295   4      2.5937464114994504      127.89164999800013      5.2105475048000001
   296   2      2.5937464114994504      127.89164999800013               2.9496935
   297   2      2.5937464114994504      127.89164999800013      7.0523489108000001
   298   4      2.5937464114995685      8.1802771450002982      5.2105475048000001
   299   2      2.5937464114995685      8.1802771450002982               2.9496935
   300   2      2.5937464114995685      8.1802771450002982      7.0523489108000001
   301   4       2.593746411499628      28.132172620500228      5.2105475048000001
   302   2       2.593746411499628      28.132172620500228               2.9496935
   303   2       2.593746411499628      28.132172620500228      7.0523489108000001
   304   4       2.593746411499628      107.93975452250019      5.2105475048000001
   305   2       2.593746411499628      107.93975452250019               2.9496935
   306   2       2.593746411499628      107.93975452250019      7.0523489108000001
   307   4      2.5937464114996911      68.035963571499835      5.2105475048000001
   308   2      2.5937464114996911      68.035963571499835               2.9496935
   309   2      2.5937464114996911      68.035963571499835      7.0523489108000001
   310   4      2.5937464114996929      87.987859046999802      5.2105475048000001
   311   2      2.5937464114996929      87.987859046999802               2.9496935
   312   2      2.5937464114996929      87.987859046999802      7.0523489108000001
   313   2      2.5937464119393114      18.156224883080039      5.0635815537999997
   314   2      2.5937464119394371      38.108120358580408      5.0635815537999997
   315   2      2.5937464119395548      117.91570226058037      5.0635815537999997
   316   2      2.5937464119395597      137.86759773608031      5.0635815537999997
   317   2      2.5937464119396858      58.060015834080083      5.0635815537999997
   318   2      2.5937464119396862      78.011911309580015      5.0635815537999997
   319   2      2.5937464119396911      97.963806785079953      5.0635815537999997
   320   3      2.8967280658450942      32.000439305326751           11.8416575997
   321   3      2.8967280658450942      32.000439305326751           16.1275452197
   322   2      2.8967315310943809      33.940215255323722           13.4298776893
   323   3       2.896734996343167      35.879991205320444           11.8416575997
   324   3       2.896734996343167      35.879991205320444           16.1275452197
   325   2       2.896738461591954      37.819767155317912           13.4298776893
   326   3      2.8967419268405004      39.759543105314627           11.8416575997
   327   3      2.8967419268405004      39.759543105314627           16.1275452197
   328   2      2.8967453920892865      41.699319055311591           13.4298776893
   329   3      2.8967488573380762      43.639095005308313           11.8416575997
   330   3      2.8967488573380762      43.639095005308313           16.1275452197
   331   2      2.8967523225866181      45.578870955305533           13.4298776893
   332   3      2.8967557878356538      47.518646905302013           11.8416575997
   333   3      2.8967557878356538      47.518646905302013           16.1275452197
   334   2      2.8967592530846908      49.458422855299226           13.4298776893
   335   3       2.896762718333235       51.39819880529619           11.8416575997
   336   3       2.896762718333235       51.39819880529619           16.1275452197
   337   2      2.8967661835817733      53.337974755292912           13.4298776893
   338   3       2.896769648830563      55.277750705289883           11.8416575997
   339   3       2.896769648830563      55.277750705289883           16.1275452197
   340   2      2.8967731140796071      57.217526655287102           13.4298776893
   341   3      2.8967765793281419      59.157302605283824           11.8416575997
   342   3      2.8967765793281419      59.157302605283824           16.1275452197
   343   2      2.8967800445771741      61.097078555280788           13.4298776893
   344   3      2.8967835098259624       63.03685450527751           11.8416575997
   345   3      2.8967835098259624       63.03685450527751           16.1275452197
   346   2      2.8967869750747552      64.976630455274488           13.4298776893
   347   3      2.8967904403232962      66.916406405270948           11.8416575997
   348   3      2.8967904403232962      66.916406405270948           16.1275452197
   349   2      2.8967939055720859      68.856182355267919           13.4298776893
   350   3      2.8967973708208703      70.795958305264648           11.8416575997
   351   3      2.8967973708208703      70.795958305264648           16.1275452197
   352   2      2.8968008360694171      72.735734255262102           13.4298776893
   353   3      2.8968043013182125      74.675510205258831           11.8416575997
   354   3      2.8968043013182125      74.675510205258831           16.1275452197
   355   2       2.896807766567238      76.615286155256044           13.4298776893
   356   3      2.8968112318165282       78.55506210525202           11.8416575997
   357   3      2.8968112318165282       78.55506210525202           16.1275452197