(written by ASE)

9695 atoms
4 atom types

0.0      103.51938631057115  xlo xhi
0.0      103.51938631057115  ylo yhi
0.0      63.177851719700001  zlo zhi

Masses

     1       137.3269999646734 # Ba
     2      15.998999995884349 # O
     3      207.19999994669897 # Pb
     4      47.866999987686484 # Ti

Atoms # atomic

     1   4  1.2633943866067265e-05      90.625128881720585      13.808564961699998
     2   2  1.2633943866067265e-05      90.625128881720585      11.293897032299999
     3   2  1.2633943866067265e-05      90.625128881720585      15.579784652299999
     4   3  1.7389722511389346e-05      12.897519007923034           11.8416575997
     5   3  1.7389722511389346e-05      12.897519007923034           16.1275452197
     6   4  0.00074271349203782866      38.767573342432229      13.808564961699998
     7   2  0.00074271349203782866      38.767573342432229      11.293897032299999
     8   2  0.00074271349203782866      38.767573342432229      15.579784652299999
     9   3   0.0015581082603391596      64.647412414158424           11.8416575997
    10   3   0.0015581082603391596      64.647412414158424           16.1275452197
    11   4    0.038454452263016949      23.649488328847681      5.2105475048000001
    12   2    0.038454452263016949      23.649488328847681               2.9496935
    13   2    0.038454452263016949      23.649488328847681      7.0523489108000001
    14   2    0.038454452517520422      75.409181483645497      5.0635815537999997
    15   2    0.084412257495990878      20.972942262902922           13.4298776893
    16   2    0.085197628597728781      46.849519755557111           13.4298776893
    17   2    0.085982999699838858      72.726097248210934           13.4298776893
    18   2    0.086768370801386802      98.602674740864757           13.4298776893
    19   2     0.11536335788484281      19.188771831320992      5.0635815537999997
    20   1     0.11536335813914905      70.948464986118992      3.0874183849999999
    21   1     0.11536335813914905      70.948464986118992      7.1900737958000001
    22   4     0.19227226253150889      14.728055333285676      5.2105475048000001
    23   2     0.19227226253150889      14.728055333285676               2.9496935
    24   2     0.19227226253150889      14.728055333285676      7.0523489108000001
    25   2     0.19227226278563947      66.487748488084051      5.0635815537999997
    26   3     0.23005655965316124      28.969517170488281           11.8416575997
    27   3     0.23005655965316124      28.969517170488281           16.1275452197
    28   4     0.23084193075544457      54.846094663141741      13.808564961699998
    29   2     0.23084193075544457      54.846094663141741      11.293897032299999
    30   2     0.23084193075544457      54.846094663141741      15.579784652299999
    31   3     0.23162730185681255      80.722672155795934           11.8416575997
    32   3     0.23162730185681255      80.722672155795934           16.1275452197
    33   4     0.23241267295846507      3.0798633378789635      13.808564961699998
    34   2     0.23241267295846507      3.0798633378789635      11.293897032299999
    35   2     0.23241267295846507      3.0798633378789635      15.579784652299999
    36   2     0.26918116815296544      10.267338835759173      5.0635815537999997
    37   1     0.26918116840746559      62.027031990557177      3.0874183849999999
    38   1     0.26918116840746559      62.027031990557177      7.1900737958000001
    39   4     0.34609007279963361      5.8066223377238533      5.2105475048000001
    40   2     0.34609007279963361      5.8066223377238533               2.9496935
    41   2     0.34609007279963361      5.8066223377238533      7.0523489108000001
    42   2     0.34609007305413569      57.566315492521852      5.0635815537999997
    43   2     0.37570086181051848      36.966092078073636           13.4298776893
    44   2     0.37648623291224842      62.842669570727097           13.4298776893
    45   2     0.37724158034779037      88.715985484308831           13.4298776893
    46   2      0.3780269514495328      11.073176666391859           13.4298776893
    47   2     0.42299897842145645      1.3459058401973505      5.0635815537999997
    48   1     0.42299897867577141      53.105598994995354      3.0874183849999999
    49   1     0.42299897867577141      53.105598994995354      7.1900737958000001
    50   4      0.4999078830679326      100.40457565273329      5.2105475048000001
    51   2      0.4999078830679326      100.40457565273329               2.9496935
    52   2      0.4999078830679326      100.40457565273329      7.0523489108000001
    53   2      0.4999078833224383      48.644882496960037      5.0635815537999997
    54   3      0.5228858825046967      96.712560391894542           11.8416575997
    55   3      0.5228858825046967      96.712560391894542           16.1275452197
    56   2     0.57681678868976682      95.943859155206781      5.0635815537999997
    57   1     0.57681678894407729      44.184165999433532      3.0874183849999999
    58   1     0.57681678894407729      44.184165999433532      7.1900737958000001
    59   4     0.59156394079973429      19.003889495538843      13.808564961699998
    60   2     0.59156394079973429      19.003889495538843      11.293897032299999
    61   2     0.59156394079973429      19.003889495538843      15.579784652299999
    62   3      0.5923192882356384      44.877205409120478           11.8416575997
    63   3      0.5923192882356384      44.877205409120478           16.1275452197
    64   4     0.59313468300356931      70.757044480846716      13.808564961699998
    65   2     0.59313468300356931      70.757044480846716      11.293897032299999
    66   2     0.59313468300356931      70.757044480846716      15.579784652299999
    67   4     0.65372569333624908      91.483142657171257      5.2105475048000001
    68   2     0.65372569333624908      91.483142657171257               2.9496935
    69   2     0.65372569333624908      91.483142657171257      7.0523489108000001
    70   2     0.65372569359074117      39.723449501398122      5.0635815537999997
    71   2     0.66617407135656226        27.0794028215177           13.4298776893
    72   2      0.6669594424584786      52.955980314171526           13.4298776893
    73   2     0.66774481356040383      78.832557806825349           13.4298776893
    74   2     0.67164164540298343      1.1734110698804272           13.4298776893
    75   2      0.7306345989580636       87.02242615964478      5.0635815537999997
    76   1     0.73063459921238239      35.262733003871524      3.0874183849999999
    77   1     0.73063459921238239      35.262733003871524      7.1900737958000001
    78   4     0.80754350360472715       82.56170966160947      5.2105475048000001
    79   2     0.80754350360472715       82.56170966160947               2.9496935
    80   2     0.80754350360472715       82.56170966160947      7.0523489108000001
    81   2     0.80754350385905427      30.802016505836253      5.0635815537999997
    82   4     0.81181837351372921      35.075977729103059      13.808564961699998
    83   2     0.81181837351372921      35.075977729103059      11.293897032299999
    84   2     0.81181837351372921      35.075977729103059      15.579784652299999
    85   4     0.81338911571738925      86.829132714410719      13.808564961699998
    86   2     0.81338911571738925      86.829132714410719      11.293897032299999
    87   2     0.81338911571738925      86.829132714410719      15.579784652299999
    88   3     0.81414446315265565      9.1830623174212782           11.8416575997
    89   3     0.81414446315265565      9.1830623174212782           16.1275452197
    90   3     0.81885668976378156      60.923140962773068           11.8416575997
    91   3     0.81885668976378156      60.923140962773068           16.1275452197
    92   2      0.8844524092263798      78.100993164082951      5.0635815537999997
    93   1     0.88445240948069181      26.341300008309705      3.0874183849999999
    94   1     0.88445240948069181      26.341300008309705      7.1900737958000001
    95   2     0.95743265200470873      43.069291057615949           13.4298776893
    96   2     0.95821802310626181      68.945868550270148           13.4298776893
    97   2     0.95900339420808767      94.822446042923602           13.4298776893
    98   4     0.96136131387304014      73.640276666047541      5.2105475048000001
    99   2     0.96136131387304014      73.640276666047541               2.9496935
   100   2     0.96136131387304014      73.640276666047541      7.0523489108000001
   101   2     0.96136131412717851      21.880583510274754      5.0635815537999997
   102   2     0.96604171045821652      17.150222966023005           13.4298776893
   103   2       1.038270219494501      69.179560168521036      5.0635815537999997
   104   1      1.0382702197490019      17.419867012747883      3.0874183849999999
   105   1      1.0382702197490019      17.419867012747883      7.1900737958000001
   106   4       1.103076954161694      51.065865965201311      13.808564961699998
   107   2       1.103076954161694      51.065865965201311      11.293897032299999
   108   2       1.103076954161694      51.065865965201311      15.579784652299999
   109   4      1.1046476963655341      102.81902095050896      13.808564961699998
   110   2      1.1046476963655341      102.81902095050896      11.293897032299999
   111   2      1.1046476963655341      102.81902095050896      15.579784652299999
   112   3      1.1132567548188972      76.899952858916194           11.8416575997
   113   3      1.1132567548188972      76.899952858916194           16.1275452197
   114   4      1.1151791241411704      64.718843670485896      5.2105475048000001
   115   2      1.1151791241411704      64.718843670485896               2.9496935
   116   2      1.1151791241411704      64.718843670485896      7.0523489108000001
   117   2      1.1151791243956697      12.959150514712562      5.0635815537999997
   118   3      1.1830804682111253      25.106998404082617           11.8416575997
   119   3      1.1830804682111253      25.106998404082617           16.1275452197
   120   2      1.1920880297629886       60.25812717295922      5.0635815537999997
   121   1      1.1920880300173089      8.4984340171859696      3.0874183849999999
   122   1      1.1920880300173089      8.4984340171859696      7.1900737958000001
   123   2       1.248721256318863      59.062440872786297           13.4298776893
   124   2      1.2495066274209663       84.93901836544012           13.4298776893
   125   2      1.2502919985224334      7.2962095475227891           13.4298776893
   126   2      1.2635832599207621      33.113958522210083           13.4298776893
   127   4      1.2689969344096594      55.797410674923803      5.2105475048000001
   128   2      1.2689969344096594      55.797410674923803               2.9496935
   129   2      1.2689969344096594      55.797410674923803      7.0523489108000001
   130   2      1.2689969346639771      4.0377175191506955      5.0635815537999997
   131   2      1.3459058400311161      51.336694177397391      5.0635815537999997
   132   1      1.3459058402856143      103.09638733219531      3.0874183849999999
   133   1      1.3459058402856143      103.09638733219531      7.1900737958000001
   134   3      1.3935501637079231      41.179176708645372           11.8416575997
   135   3      1.3935501637079231      41.179176708645372           16.1275452197
   136   4      1.3943355348098427      67.055754201299564      13.808564961699998
   137   2      1.3943355348098427      67.055754201299564      11.293897032299999
   138   2      1.3943355348098427      67.055754201299564      15.579784652299999
   139   4      1.3959062770132267      15.289522876036054      13.808564961699998
   140   2      1.3959062770132267      15.289522876036054      11.293897032299999
   141   2      1.3959062770132267      15.289522876036054      15.579784652299999
   142   3      1.4107983042813952      92.863688415103098           11.8416575997
   143   3      1.4107983042813952      92.863688415103098           16.1275452197
   144   4      1.4228147446777837      46.875977679361988      5.2105475048000001
   145   2      1.4228147446777837      46.875977679361988               2.9496935
   146   2      1.4228147446777837      46.875977679361988      7.0523489108000001
   147   2      1.4228147449322783       98.63567083416001      5.0635815537999997
   148   2      1.4997236502996707      42.415261181836129      5.0635815537999997
   149   1      1.4997236505539135      94.174954336633391      3.0874183849999999
   150   1      1.4997236505539135      94.174954336633391      7.1900737958000001
   151   2      1.5384090947633589      23.299174123576535           13.4298776893
   152   2      1.5399798369666426      75.052329108884919           13.4298776893
   153   2      1.5407652080686571      100.92890660153837           13.4298776893
   154   2      1.5579833249756694      49.090770418353031           13.4298776893
   155   4      1.5766325549460887       37.95454468380035      5.2105475048000001
   156   2      1.5766325549460887       37.95454468380035               2.9496935
   157   2      1.5766325549460887       37.95454468380035      7.0523489108000001
   158   2      1.5766325552005869      89.714237838598166      5.0635815537999997
   159   2      1.6535414605679137       33.49382818627366      5.0635815537999997
   160   1      1.6535414608222228      85.253521341071561      3.0874183849999999
   161   1      1.6535414608222228      85.253521341071561      7.1900737958000001
   162   4      1.6840533969207128      31.295749031161893      13.808564961699998
   163   2      1.6840533969207128      31.295749031161893      11.293897032299999
   164   2      1.6840533969207128      31.295749031161893      15.579784652299999
   165   3      1.6848387680220789      57.172326523816089           11.8416575997
   166   3      1.6848387680220789      57.172326523816089           16.1275452197
   167   4      1.6856241391240059      83.048904016469535      13.808564961699998
   168   2      1.6856241391240059      83.048904016469535      11.293897032299999
   169   2      1.6856241391240059      83.048904016469535      15.579784652299999
   170   3      1.7051983693368706      5.3211140006745117           11.8416575997
   171   3      1.7051983693368706      5.3211140006745117           16.1275452197
   172   4      1.7304503652143959       29.03311168823825      5.2105475048000001
   173   2      1.7304503652143959       29.03311168823825               2.9496935
   174   2      1.7304503652143959       29.03311168823825      7.0523489108000001
   175   2      1.7304503654688961      80.792804843036336      5.0635815537999997
   176   2      1.8073592708360395      24.572395190711838      5.0635815537999997
   177   1      1.8073592710905324       76.33208834550976      3.0874183849999999
   178   1      1.8073592710905324       76.33208834550976      7.1900737958000001
   179   2      1.8296976990775111      39.292323938747252           13.4298776893
   180   2      1.8304530465130602      65.165639852328979           13.4298776893
   181   2      1.8312384176148908      91.042217344982802           13.4298776893
   182   2      1.8320237887167166      13.399408527065471           13.4298776893
   183   4      1.8842681754827066      20.111678692676524      5.2105475048000001
   184   2      1.8842681754827066      20.111678692676524               2.9496935
   185   2      1.8842681754827066      20.111678692676524      7.0523489108000001
   186   2      1.8842681757372028      71.871371847474435      5.0635815537999997
   187   2      1.9611770811045273      15.650962195149996      5.0635815537999997
   188   1      1.9611770813588418       67.41065534994793      3.0874183849999999
   189   1      1.9611770813588418       67.41065534994793      7.1900737958000001
   190   3      1.9745266064665727      21.409059774606323           11.8416575997
   191   3      1.9745266064665727      21.409059774606323           16.1275452197
   192   4      1.9753119775684926      47.285637267260142      13.808564961699998
   193   2      1.9753119775684926      47.285637267260142      11.293897032299999
   194   2      1.9753119775684926      47.285637267260142      15.579784652299999
   195   3       1.976097348670224      73.162214759914349           11.8416575997
   196   3       1.976097348670224      73.162214759914349           16.1275452197
   197   4      1.9768827197720513      99.038792252568172      13.808564961699998
   198   2      1.9768827197720513      99.038792252568172      11.293897032299999
   199   2      1.9768827197720513      99.038792252568172      15.579784652299999
   200   4      2.0380859857510125      11.190245697114701      5.2105475048000001
   201   2      2.0380859857510125      11.190245697114701               2.9496935
   202   2      2.0380859857510125      11.190245697114701      7.0523489108000001
   203   2      2.0380859860053286      62.949938851912975      5.0635815537999997
   204   2      2.1149948913728362      6.7295291995882893      5.0635815537999997
   205   1       2.114994891627151      58.489222354386101      3.0874183849999999
   206   1       2.114994891627151      58.489222354386101      7.1900737958000001
   207   2      2.1201709086239267      29.405634682191312           13.4298776893
   208   2       2.120956279725478      55.282212174845505           13.4298776893
   209   2      2.1217416508273992       81.15878966749932           13.4298776893
   210   2      2.1225270219289545      3.5159808495819944           13.4298776893
   211   4      2.1919037960193202      2.2688127015527857      5.2105475048000001
   212   2      2.1919037960193202      2.2688127015527857               2.9496935
   213   2      2.1919037960193202      2.2688127015527857      7.0523489108000001
   214   2      2.1919037962738166      54.028505856350741      5.0635815537999997
   215   3       2.265815210780914      37.402209589776668           11.8416575997
   216   3       2.265815210780914      37.402209589776668           16.1275452197
   217   4      2.2666005818826518       63.27878708243086      13.808564961699998
   218   2      2.2666005818826518       63.27878708243086      11.293897032299999
   219   2      2.2666005818826518       63.27878708243086      15.579784652299999
   220   3      2.2673559293179215      89.152102996012587           11.8416575997
   221   3      2.2673559293179215      89.152102996012587           16.1275452197
   222   4      2.2681413004202993      11.509294178094891      13.808564961699998
   223   2      2.2681413004202993      11.509294178094891      11.293897032299999
   224   2      2.2681413004202993      11.509294178094891      15.579784652299999
   225   2      2.2688127016413295      101.32748251459725      5.0635815537999997
   226   1      2.2688127018954609      49.567789358824193      3.0874183849999999
   227   1      2.2688127018954609      49.567789358824193      7.1900737958000001
   228   4      2.3457216062876287       96.86676601656211      5.2105475048000001
   229   2      2.3457216062876287       96.86676601656211               2.9496935
   230   2      2.3457216062876287       96.86676601656211      7.0523489108000001
   231   2      2.3457216065421314      45.107072860788868      5.0635815537999997
   232   2      2.4106441181699716      19.518945425636105           13.4298776893
   233   2      2.4114294892718884      45.395522918289565           13.4298776893
   234   2       2.412214860373445      71.272100410943764           13.4298776893
   235   2      2.4130002314754466      97.148677903597587           13.4298776893
   236   2      2.4226305119094498      92.406049519035633      5.0635815537999997
   237   1      2.4226305121637681      40.646356363262413      3.0874183849999999
   238   1      2.4226305121637681      40.646356363262413      7.1900737958000001
   239   4      2.4995394165559284      87.945333021000195      5.2105475048000001
   240   2      2.4995394165559284      87.945333021000195               2.9496935
   241   2      2.4995394165559284      87.945333021000195      7.0523489108000001
   242   2      2.4995394168104337      36.185639865227053      5.0635815537999997
   243   4      2.5562884203269571      27.515520333221467      13.808564961699998
   244   2      2.5562884203269571      27.515520333221467      11.293897032299999
   245   2      2.5562884203269571      27.515520333221467      15.579784652299999
   246   3      2.5570737914288775      53.392097825874927           11.8416575997
   247   3      2.5570737914288775      53.392097825874927           16.1275452197
   248   3       2.558644533632445      1.6258665006114128           11.8416575997
   249   3       2.558644533632445      1.6258665006114128           16.1275452197
   250   4      2.5610006469378308      79.255598978573246      13.808564961699998
   251   2      2.5610006469378308      79.255598978573246      11.293897032299999
   252   2      2.5610006469378308      79.255598978573246      15.579784652299999
   253   2      2.5764483221775745      83.484616523473704      5.0635815537999997
   254   1      2.5764483224320744      31.724923367700548      3.0874183849999999
   255   1      2.5764483224320744      31.724923367700548      7.1900737958000001
   256   4      2.6533572268242378      79.023900025438394      5.2105475048000001
   257   2      2.6533572268242378      79.023900025438394               2.9496935
   258   2      2.6533572268242378      79.023900025438394      7.0523489108000001
   259   2      2.6533572270787396      27.264206869665234      5.0635815537999997
   260   2      2.7027180935860513      61.388672733460282           13.4298776893
   261   2      2.7035034646877829       87.26525022611375           13.4298776893
   262   2      2.7042588121234217      9.6191798291243078           13.4298776893
   263   2      2.7081856676323803      35.482680981823009           13.4298776893
   264   2      2.7302661324460624      74.563183527911789      5.0635815537999997
   265   1      2.7302661327003825      22.803490372138636      3.0874183849999999
   266   1      2.7302661327003825      22.803490372138636      7.1900737958000001
   267   4      2.8071750370925508      70.102467029876564      5.2105475048000001
   268   2      2.8071750370925508      70.102467029876564               2.9496935
   269   2      2.8071750370925508      70.102467029876564      7.0523489108000001
   270   2      2.8071750373470494      18.342773874103315      5.0635815537999997
   271   3      2.8467616298731842      17.628831076665527           11.8416575997
   272   3      2.8467616298731842      17.628831076665527           16.1275452197
   273   4      2.8475470009751054      43.505408569319719      13.808564961699998
   274   2      2.8475470009751054      43.505408569319719      11.293897032299999
   275   2      2.8475470009751054      43.505408569319719      15.579784652299999
   276   3      2.8483323720768405       69.38198606197318           11.8416575997
   277   3      2.8483323720768405       69.38198606197318           16.1275452197
   278   4      2.8554007119930396       95.23241087471601      13.808564961699998
   279   2      2.8554007119930396       95.23241087471601      11.293897032299999
   280   2      2.8554007119930396       95.23241087471601      15.579784652299999
   281   2      2.8840839427141871      65.641750532349889      5.0635815537999997
   282   1      2.8840839429686893      13.882057376576816      3.0874183849999999
   283   1      2.8840839429686893      13.882057376576816      7.1900737958000001
   284   4      2.9609928473608536      61.181034034314656      5.2105475048000001
   285   2      2.9609928473608536      61.181034034314656               2.9496935
   286   2      2.9609928473608536      61.181034034314656      7.0523489108000001
   287   2      2.9609928476153571      9.4213408785414963      5.0635815537999997
   288   2      2.9924059320305396      25.625405984250882           13.4298776893
   289   2      2.9939766742340095      77.378560969558166           13.4298776893
   290   2      2.9947620453359347      103.25513846221199           13.4298776893
   291   2      3.0025857326875176      51.459492877965765           13.4298776893
   292   2      3.0379017529827688      56.720317536788698      5.0635815537999997
   293   1      3.0379017532369961      4.9606243810149024      3.0874183849999999
   294   1      3.0379017532369961      4.9606243810149024      7.1900737958000001
   295   4       3.114810657629163      52.259601038752834      5.2105475048000001
   296   2       3.114810657629163      52.259601038752834               2.9496935
   297   2       3.114810657629163      52.259601038752834      7.0523489108000001
   298   2      3.1148106578836647     0.49990788297958327      5.0635815537999997
   299   3      3.1380502341877121      33.621980891835506           11.8416575997
   300   3      3.1380502341877121      33.621980891835506           16.1275452197
   301   4      3.1388356052894468      59.498558384489691      13.808564961699998
   302   2      3.1388356052894468      59.498558384489691      11.293897032299999
   303   2      3.1388356052894468      59.498558384489691      15.579784652299999
   304   3      3.1396209763909928       85.37513587714389           11.8416575997
   305   3      3.1396209763909928       85.37513587714389           16.1275452197
   306   4      3.1498007770484886      7.6898364602872489      13.808564961699998
   307   2      3.1498007770484886      7.6898364602872489      11.293897032299999
   308   2      3.1498007770484886      7.6898364602872489      15.579784652299999
   309   2      3.1917195632509872      47.798884541226329      5.0635815537999997
   310   1      3.1917195635053002      99.558577696024244      3.0874183849999999
   311   1      3.1917195635053002      99.558577696024244      7.1900737958000001
   312   4      3.2686284678976545      43.338168043190926      5.2105475048000001
   313   2      3.2686284678976545      43.338168043190926               2.9496935
   314   2      3.2686284678976545      43.338168043190926      7.0523489108000001
   315   2       3.268628468151777      95.097861197989204      5.0635815537999997
   316   2      3.2836645126783197      41.615294220349142           13.4298776893
   317   2      3.2852352548819779      93.368449205656788           13.4298776893
   318   2      3.2860206259835318      15.725640387739453           13.4298776893
   319   2      3.3001272821502536      67.423228434152477           13.4298776893
   320   2      3.3455373735192957      38.877451545664599      5.0635815537999997
   321   1      3.3455373737736092      90.637144700462414      3.0874183849999999
   322   1      3.3455373737736092      90.637144700462414      7.1900737958000001
   323   4      3.4224462781657765      34.416735047629189      5.2105475048000001
   324   2      3.4224462781657765      34.416735047629189               2.9496935
   325   2      3.4224462781657765      34.416735047629189      7.0523489108000001
   326   2      3.4224462784202729      86.176428202427104      5.0635815537999997
   327   3      3.4293088148356721      49.611869127933765           11.8416575997
   328   3      3.4293088148356721      49.611869127933765           16.1275452197
   329   4      3.4300941859372265       75.48844662058832      13.808564961699998
   330   2      3.4300941859372265       75.48844662058832      11.293897032299999
   331   2      3.4300941859372265       75.48844662058832      15.579784652299999
   332   3      3.4308795570391486       101.3650241132414           11.8416575997
   333   3      3.4308795570391486       101.3650241132414           16.1275452197
   334   4      3.4473123028447019       23.65031043740224      13.808564961699998
   335   2      3.4473123028447019       23.65031043740224      11.293897032299999
   336   2      3.4473123028447019       23.65031043740224      15.579784652299999
   337   2      3.4993551837876029      29.956018550102549      5.0635815537999997
   338   1      3.4993551840419146      81.715711704900471      3.0874183849999999
   339   1      3.4993551840419146      81.715711704900471      7.1900737958000001
   340   2      3.5741677458911112      31.731866542865291           13.4298776893
   341   2      3.5749531169928459      57.608444035519113           13.4298776893
   342   4      3.5762640884342702      25.495302052067185      5.2105475048000001
   343   2      3.5762640884342702      25.495302052067185               2.9496935
   344   2      3.5762640884342702      25.495302052067185      7.0523489108000001
   345   2      3.5762640886885873      77.254995206865232      5.0635815537999997
   346   2      3.5765238591962305      5.8422127102559758           13.4298776893
   347   2      3.5945273472055259      83.400040330295056           13.4298776893
   348   2      3.6531729940557236      21.034585554540772      5.0635815537999997
   349   1        3.65317299431022      72.794278709338641      3.0874183849999999
   350   1        3.65317299431022      72.794278709338641      7.1900737958000001
   351   4      3.7198120480477299      39.728441450451022      13.808564961699998
   352   2      3.7198120480477299      39.728441450451022      11.293897032299999
   353   2      3.7198120480477299      39.728441450451022      15.579784652299999
   354   3      3.7205673954836356      65.601757364032011           11.8416575997
   355   3      3.7205673954836356      65.601757364032011           16.1275452197
   356   4        3.72135276658519      91.478334856686573      13.808564961699998
   357   2        3.72135276658519      91.478334856686573      11.293897032299999