(written by ASE)

6713 atoms
4 atom types

0.0      86.140445786731163  xlo xhi
0.0      86.140445786731163  ylo yhi
0.0      63.177851719700001  zlo zhi

Masses

     1       137.3269999646734 # Ba
     2      15.998999995884349 # O
     3      207.19999994669897 # Pb
     4      47.866999987686484 # Ti

Atoms # atomic

     1   2  2.6379909751739522e-10       64.60533433975381      5.0635815537999997
     2   2    0.033750352167190183        34.7235108758995           13.4298776893
     3   3    0.034051437210461173       77.79416753496858           11.8416575997
     4   3    0.034051437210461173       77.79416753496858           16.1275452197
     5   4    0.092425370744649557      56.379476319474584      5.2105475048000001
     6   2    0.092425370744649557      56.379476319474584               2.9496935
     7   2    0.092425370744649557      56.379476319474584      7.0523489108000001
     8   1    0.092425371406902768      13.309253426516641      3.0874183849999999
     9   1    0.092425371406902768      13.309253426516641      7.1900737958000001
    10   4     0.12137066125699317      61.107812335830701      13.808564961699998
    11   2     0.12137066125699317      61.107812335830701      11.293897032299999
    12   2     0.12137066125699317      61.107812335830701      15.579784652299999
    13   2     0.12148395052981466      18.037382255307229           13.4298776893
    14   2     0.18485074188775169      5.0833954062374112      5.0635815537999997
    15   2     0.18485074229538576      48.153618298940515      5.0635815537999997
    16   3     0.20850208953368765      44.420816183831782           11.8416575997
    17   3     0.20850208953368765      44.420816183831782           16.1275452197
    18   2     0.20880317457695763      1.3510270561694959           13.4298776893
    19   4     0.27727611277623571      39.927760278661204      5.2105475048000001
    20   2     0.27727611277623571      39.927760278661204               2.9496935
    21   2     0.27727611277623571      39.927760278661204      7.0523489108000001
    22   1       0.277276113438643      82.997983172434274      3.0874183849999999
    23   1       0.277276113438643      82.997983172434274      7.1900737958000001
    24   2     0.29612239862349216      70.805117643762941           13.4298776893
    25   4     0.29623568789630988      27.734687563239415      13.808564961699998
    26   2     0.29623568789630988      27.734687563239415      11.293897032299999
    27   2     0.29623568789630988      27.734687563239415      15.579784652299999
    28   2     0.36970148391933422      74.772125152155027      5.0635815537999997
    29   2     0.36970148432697364      31.701902258127127      5.0635815537999997
    30   2     0.38344162267063159      54.118762444625048           13.4298776893
    31   3     0.38355491194314689      11.048332364101455           11.8416575997
    32   3     0.38355491194314689      11.048332364101455           16.1275452197
    33   4     0.46212685480782267       23.47604423784767      5.2105475048000001
    34   2     0.46212685480782267       23.47604423784767               2.9496935
    35   2     0.46212685480782267       23.47604423784767      7.0523489108000001
    36   1      0.4621268554700742      66.546267131620723      3.0874183849999999
    37   1      0.4621268554700742      66.546267131620723      7.1900737958000001
    38   2     0.47057305094702112      37.431766292625774           13.4298776893
    39   4     0.47087413599029171      80.502422951695095      13.808564961699998
    40   2     0.47087413599029171      80.502422951695095      11.293897032299999
    41   2     0.47087413599029171      80.502422951695095      15.579784652299999
    42   2     0.55455222595092613      58.320409111341739      5.0635815537999997
    43   2     0.55455222635856105      15.250186217313667      5.0635815537999997
    44   3     0.55819336003712738      63.816067752557046           11.8416575997
    45   3     0.55819336003712738      63.816067752557046           16.1275452197
    46   2     0.55830664930994689      20.745637672033528           13.4298776893
    47   4     0.64532478831382312      47.129071600558042      13.808564961699998
    48   2     0.64532478831382312      47.129071600558042      11.293897032299999
    49   2     0.64532478831382312      47.129071600558042      15.579784652299999
    50   2     0.64562587335678578      4.0592824728956858           13.4298776893
    51   4     0.64697759683940981        7.02432819703413      5.2105475048000001
    52   2     0.64697759683940981        7.02432819703413               2.9496935
    53   2     0.64697759683940981        7.02432819703413      7.0523489108000001
    54   1     0.64697759750181794       50.09455109080735      3.0874183849999999
    55   1     0.64697759750181794       50.09455109080735      7.1900737958000001
    56   3     0.73264401236066012      30.442716401420082           11.8416575997
    57   3     0.73264401236066012      30.442716401420082           16.1275452197
    58   2      0.7329450974036259      73.513373060489215           13.4298776893
    59   2     0.73940296798266569      41.868693070527968      5.0635815537999997
    60   2     0.73940296839014741      84.938915963231366      5.0635815537999997
    61   2     0.82026432145045902      56.827017861351315           13.4298776893
    62   4     0.82037761072297544      13.756587780827838      13.808564961699998
    63   2     0.82037761072297544      13.756587780827838      11.293897032299999
    64   2     0.82037761072297544      13.756587780827838      15.579784652299999
    65   4     0.83182833887099339      76.713057942951991      5.2105475048000001
    66   2     0.83182833887099339      76.713057942951991               2.9496935
    67   2     0.83182833887099339      76.713057942951991      7.0523489108000001
    68   1     0.83182833953340318      33.642835049993955      3.0874183849999999
    69   1     0.83182833953340318      33.642835049993955      7.1900737958000001
    70   2     0.90739574972715553      40.140021709352162           13.4298776893
    71   3     0.90769683477042395      83.210678368421114           11.8416575997
    72   3     0.90769683477042395      83.210678368421114           16.1275452197
    73   2     0.92425371001425272       25.41697702971458      5.0635815537999997
    74   2      0.9242537104217331      68.487199922417901      5.0635815537999997
    75   4     0.99501605881695399      66.524323169283463      13.808564961699998
    76   2     0.99501605881695399      66.524323169283463      11.293897032299999
    77   2     0.99501605881695399      66.524323169283463      15.579784652299999
    78   2     0.99512934808977738      23.453893088759877           13.4298776893
    79   4      1.0166790809027373      60.261341902138376      5.2105475048000001
    80   2      1.0166790809027373      60.261341902138376               2.9496935
    81   2      1.0166790809027373      60.261341902138376      7.0523489108000001
    82   1      1.0166790815649906      17.191119009180579      3.0874183849999999
    83   1      1.0166790815649906      17.191119009180579      7.1900737958000001
    84   3      1.0821474870936507      49.837327017284345           11.8416575997
    85   3      1.0821474870936507      49.837327017284345           16.1275452197
    86   2      1.0824485721366142      6.7675378896220284           13.4298776893
    87   2      1.1091044520458395      8.9652609889010435      5.0635815537999997
    88   2      1.1091044524534741      52.035483881604378      5.0635815537999997
    89   4      1.1694667111404884      33.150971818146346      13.808564961699998
    90   2      1.1694667111404884      33.150971818146346      11.293897032299999
    91   2      1.1694667111404884      33.150971818146346      15.579784652299999
    92   2      1.1697677961834485      76.221628477215546           13.4298776893
    93   4      1.2015298229343243      43.809625861324839      5.2105475048000001
    94   2      1.2015298229343243      43.809625861324839               2.9496935
    95   2      1.2015298229343243      43.809625861324839      7.0523489108000001
    96   1      1.2015298235965777     0.73940296836704222      3.0874183849999999
    97   1      1.2015298235965777     0.73940296836704222      7.1900737958000001
    98   2      1.2570870202302904      59.535273278077661           13.4298776893
    99   3      1.2572003095028044      16.464843197554146           11.8416575997
   100   3      1.2572003095028044      16.464843197554146           16.1275452197
   101   2      1.2939551940774248      78.653990734818976      5.0635815537999997
   102   2      1.2939551944850627      35.583767840790841      5.0635815537999997
   103   2      1.3442184485069844      42.848277126078656           13.4298776893
   104   4      1.3445195335502507      85.918933785147544      13.808564961699998
   105   2      1.3445195335502507      85.918933785147544      11.293897032299999
   106   2      1.3445195335502507      85.918933785147544      15.579784652299999
   107   4      1.3863805649659113      27.357909820511455      5.2105475048000001
   108   2      1.3863805649659113      27.357909820511455               2.9496935
   109   2      1.3863805649659113      27.357909820511455      7.0523489108000001
   110   1      1.3863805656281623      70.428132714284814      3.0874183849999999
   111   1      1.3863805656281623      70.428132714284814      7.1900737958000001
   112   3      1.4318387575967855      69.232578586009808           11.8416575997
   113   3      1.4318387575967855      69.232578586009808           16.1275452197
   114   2       1.431952046869605      26.162148505486293           13.4298776893
   115   2      1.4788059361090886       62.20227469400529      5.0635815537999997
   116   2      1.4788059365166486       19.13205179997745      5.0635815537999997
   117   2      1.5192712709164427      9.4757933063482938           13.4298776893
   118   4      1.5193845601892602      52.545809012556099      13.808564961699998
   119   2      1.5193845601892602      52.545809012556099      11.293897032299999
   120   2      1.5193845601892602      52.545809012556099      15.579784652299999
   121   4      1.5712313069974977       10.90619377969807      5.2105475048000001
   122   2      1.5712313069974977       10.90619377969807               2.9496935
   123   2      1.5712313069974977       10.90619377969807      7.0523489108000001
   124   1      1.5712313076597526      53.976416673471292      3.0874183849999999
   125   1      1.5712313076597526      53.976416673471292      7.1900737958000001
   126   3      1.6062894099206213      35.859227234872613           11.8416575997
   127   3      1.6062894099206213      35.859227234872613           16.1275452197
   128   2      1.6065904949632785      78.929883893941962           13.4298776893
   129   2      1.6636566781406021      45.750558653191916      5.0635815537999997
   130   2      1.6636566785482358      2.6803357591640675      5.0635815537999997
   131   2      1.6939097190101184      62.243528694803999           13.4298776893
   132   4      1.6940230082829382      19.173098614280406      13.808564961699998
   133   2      1.6940230082829382      19.173098614280406      11.293897032299999
   134   2      1.6940230082829382      19.173098614280406      15.579784652299999
   135   4       1.756082049029086      80.594923525615698      5.2105475048000001
   136   2       1.756082049029086      80.594923525615698               2.9496935
   137   2       1.756082049029086      80.594923525615698      7.0523489108000001
   138   1      1.7560820496913387      37.524700632657748      3.0874183849999999
   139   1      1.7560820496913387      37.524700632657748      7.1900737958000001
   140   2      1.7810411472871164      45.556532542804916           13.4298776893
   141   3      1.7813422323300814      2.4867434151426382           11.8416575997
   142   3      1.7813422323300814      2.4867434151426382           16.1275452197
   143   2      1.8485074201721874      29.298842612378522      5.0635815537999997
   144   2      1.8485074205798222       72.36906550508192      5.0635815537999997
   145   4      1.8686614563769193      71.940834002736068      13.808564961699998
   146   2      1.8686614563769193      71.940834002736068      11.293897032299999
   147   2      1.8686614563769193      71.940834002736068      15.579784652299999
   148   2      1.8687747456494326      28.870403922212599           13.4298776893
   149   4      1.9409327910606713       64.14320748480246      5.2105475048000001
   150   2      1.9409327910606713       64.14320748480246               2.9496935
   151   2      1.9409327910606713       64.14320748480246      7.0523489108000001
   152   1      1.9409327917230781      21.072984591844211      3.0874183849999999
   153   1      1.9409327917230781      21.072984591844211      7.1900737958000001
   154   3      1.9559806804237558      55.254478803598197           11.8416575997
   155   3      1.9559806804237558      55.254478803598197           16.1275452197
   156   2      1.9560939696962707      12.184048723074753           13.4298776893
   157   2      2.0333581622039274      12.847126571564981      5.0635815537999997
   158   2      2.0333581626115618      55.917349464268163      5.0635815537999997
   159   4      2.0431121087001434      38.567482651599029      13.808564961699998
   160   2      2.0431121087001434      38.567482651599029      11.293897032299999
   161   2      2.0431121087001434      38.567482651599029      15.579784652299999
   162   2      2.0434131937431079      81.638139310668222           13.4298776893
   163   4      2.1257835330922585       47.69149144398893      5.2105475048000001
   164   2      2.1257835330922585       47.69149144398893               2.9496935
   165   2      2.1257835330922585       47.69149144398893      7.0523489108000001
   166   1       2.125783533754666      4.6212685510309814      3.0874183849999999
   167   1       2.125783533754666      4.6212685510309814      7.1900737958000001
   168   2      2.1307324177902522      64.951784111530259           13.4298776893
   169   3       2.130845707062766      21.881354031006754           11.8416575997
   170   3       2.130845707062766      21.881354031006754           16.1275452197
   171   2      2.2178638460669458      48.264787959531219           13.4298776893
   172   4      2.2181649311096034      5.1949988318688289      13.808564961699998
   173   2      2.2181649311096034      5.1949988318688289      11.293897032299999
   174   2      2.2181649311096034      5.1949988318688289      15.579784652299999
   175   2      2.2182089042355133      82.535856317482612      5.0635815537999997
   176   2      2.2182089046431499      39.465633423454776      5.0635815537999997
   177   2      2.3051830701137836      31.578432760393262           13.4298776893
   178   3      2.3054841551567464      74.649089419462342           11.8416575997
   179   3      2.3054841551567464      74.649089419462342           16.1275452197
   180   4      2.3106342751239231      31.239775403175393      5.2105475048000001
   181   2      2.3106342751239231      31.239775403175393               2.9496935
   182   2      2.3106342751239231      31.239775403175393      7.0523489108000001
   183   1      2.3106342757864065       74.30999829694845      3.0874183849999999
   184   1      2.3106342757864065       74.30999829694845      7.1900737958000001
   185   4      2.3928033792035834      57.962734220324457      13.808564961699998
   186   2      2.3928033792035834      57.962734220324457      11.293897032299999
   187   2      2.3928033792035834      57.962734220324457      15.579784652299999
   188   2      2.3929166684764049      14.892304139800981           13.4298776893
   189   2      2.4030596462671014      66.084140276669231      5.0635815537999997
   190   2      2.4030596466747367      23.013917382641235      5.0635815537999997
   191   3      2.4799348074802787      41.275738068325452           11.8416575997
   192   3      2.4799348074802787      41.275738068325452           16.1275452197
   193   2      2.4802358925232411      84.346394727394426           13.4298776893
   194   4      2.4954850171555853      14.788059362361853      5.2105475048000001
   195   2      2.4954850171555853      14.788059362361853               2.9496935
   196   2      2.4954850171555853      14.788059362361853      7.0523489108000001
   197   1      2.4954850178179919       57.85828225613492      3.0874183849999999
   198   1      2.4954850178179919       57.85828225613492      7.1900737958000001
   199   2      2.5675551165700803      67.660039528256689           13.4298776893
   200   4      2.5676684058425949      24.589609447733171      13.808564961699998
   201   2      2.5676684058425949      24.589609447733171      11.293897032299999
   202   2      2.5676684058425949      24.589609447733171      15.579784652299999
   203   2      2.5879103882986891      49.632424235855844      5.0635815537999997
   204   2      2.5879103887063239       6.562201341827854      5.0635815537999997
   205   3      2.6549876298894319      7.9032542485952098           11.8416575997
   206   3      2.6549876298894319      7.9032542485952098           16.1275452197
   207   2       2.655100919162559      50.973269954803051           13.4298776893
   208   4      2.6803357591871722       84.47678910827949      5.2105475048000001
   209   2      2.6803357591871722       84.47678910827949               2.9496935
   210   2      2.6803357591871722       84.47678910827949      7.0523489108000001
   211   1      2.6803357598495761      41.406566215321533      3.0874183849999999
   212   1      2.6803357598495761      41.406566215321533      7.1900737958000001
   213   2      2.7420057688936104      34.286688177119522           13.4298776893
   214   4      2.7423068539365771      77.357344836188844      13.808564961699998
   215   2      2.7423068539365771      77.357344836188844      11.293897032299999
   216   2      2.7423068539365771      77.357344836188844      15.579784652299999
   217   2      2.7727611303302755      33.180708195042456      5.0635815537999997
   218   2      2.7727611307379081      76.250931087745627      5.0635815537999997
   219   3      2.8296260779837192      60.670989637050795           11.8416575997
   220   3      2.8296260779837192      60.670989637050795           16.1275452197
   221   2      2.8297393672562334      17.600559556527287           13.4298776893
   222   4       2.865186501218759      68.025073067466252      5.2105475048000001
   223   2       2.865186501218759      68.025073067466252               2.9496935
   224   2       2.865186501218759      68.025073067466252      7.0523489108000001
   225   1      2.8651865018811673      24.954850174508152      3.0874183849999999
   226   1      2.8651865018811673      24.954850174508152      7.1900737958000001
   227   4      2.9167575062601072      43.983993485051833      13.808564961699998
   228   2      2.9167575062601072      43.983993485051833      11.293897032299999
   229   2      2.9167575062601072      43.983993485051833      15.579784652299999
   230   2      2.9170585913030709     0.91420435738943806           13.4298776893
   231   2      2.9576118723620155      16.728992154228767      5.0635815537999997
   232   2      2.9576118727694984      59.799215046932098      5.0635815537999997
   233   2      3.0043778153499097      70.368294944982964           13.4298776893
   234   3      3.0044911046227289      27.297864864459477           11.8416575997
   235   3      3.0044911046227289      27.297864864459477           16.1275452197
   236   4      3.0500372432503462      51.573357026653028      5.2105475048000001
   237   2      3.0500372432503462      51.573357026653028               2.9496935
   238   2      3.0500372432503462      51.573357026653028      7.0523489108000001
   239   1      3.0500372439127537       8.503134133694461      3.0874183849999999
   240   1      3.0500372439127537       8.503134133694461      7.1900737958000001
   241   4      3.0918103286692604      10.611509665321591      13.808564961699998
   242   2      3.0918103286692604      10.611509665321591      11.293897032299999
   243   2      3.0918103286692604      10.611509665321591      15.579784652299999
   244   2      3.0919236179423861      53.681525371529283           13.4298776893
   245   2      3.1424626143936032     0.27727611341538422      5.0635815537999997
   246   2      3.1424626148010852      43.347499006118568      5.0635815537999997
   247   2      3.1788284676737448       36.99494359384579           13.4298776893
   248   3      3.1791295527164065      80.065600252915118           11.8416575997
   249   3      3.1791295527164065      80.065600252915118           16.1275452197
   250   4      3.2348879852820871      35.121640985839178      5.2105475048000001
   251   2      3.2348879852820871      35.121640985839178               2.9496935
   252   2      3.2348879852820871      35.121640985839178      7.0523489108000001
   253   1      3.2348879859443396      78.191863879612384      3.0874183849999999
   254   1      3.2348879859443396      78.191863879612384      7.1900737958000001
   255   4      3.2664487767635459      63.379245053777218      13.808564961699998
   256   2      3.2664487767635459      63.379245053777218      11.293897032299999
   257   2      3.2664487767635459      63.379245053777218      15.579784652299999
   258   2       3.266562066036061      20.308814973253625           13.4298776893
   259   2      3.3273133564251154      69.966005859332867      5.0635815537999997
   260   2      3.3273133568326707      26.895782965305251      5.0635815537999997
   261   3      3.3535802050399344        46.6922489017781           11.8416575997
   262   3      3.3535802050399344        46.6922489017781           16.1275452197
   263   2      3.3538812900828994      3.6224597741157809           13.4298776893
   264   4      3.4197387273135966      18.669924945025791      5.2105475048000001
   265   2      3.4197387273135966      18.669924945025791               2.9496935
   266   2      3.4197387273135966      18.669924945025791      7.0523489108000001
   267   1      3.4197387279759277      61.740147838799018      3.0874183849999999
   268   1      3.4197387279759277      61.740147838799018      7.1900737958000001
   269   2       3.441200514129739      73.076550361709295           13.4298776893
   270   4      3.4413138034025561      30.006120281185741      13.808564961699998
   271   2      3.4413138034025561      30.006120281185741      11.293897032299999
   272   2      3.4413138034025561      30.006120281185741      15.579784652299999
   273   2      3.5121640984567772      53.514289818519636      5.0635815537999997
   274   2      3.5121640988642593      10.444066924491946      5.0635815537999997
   275   2      3.5285197381765725      56.390195162571402           13.4298776893
   276   3      3.5286330274493944      13.319765082047855           11.8416575997
   277   3      3.5286330274493944      13.319765082047855           16.1275452197
   278   4      3.6045894693452607      2.2182089042122568      5.2105475048000001
   279   2      3.6045894693452607      2.2182089042122568               2.9496935
   280   2      3.6045894693452607      2.2182089042122568      7.0523489108000001
   281   1      3.6045894700075145      45.288431797985474      3.0874183849999999
   282   1      3.6045894700075145      45.288431797985474      7.1900737958000001
   283   2      3.6156511664535742      39.703199010572405           13.4298776893
   284   4      3.6159522514965383      82.773855669641364      13.808564961699998
   285   2      3.6159522514965383      82.773855669641364      11.293897032299999
   286   2      3.6159522514965383      82.773855669641364      15.579784652299999
   287   2      3.6970148404883649      37.062573777706248      5.0635815537999997
   288   2      3.6970148408959984      80.132796670409562      5.0635815537999997
   289   3      3.7032714755433718      66.087500470503556           11.8416575997
   290   3      3.7032714755433718      66.087500470503556           16.1275452197
   291   2        3.70338476481589      23.017070389980049           13.4298776893
   292   4      3.7894402113768506      71.906938650130044      5.2105475048000001
   293   2      3.7894402113768506      71.906938650130044               2.9496935
   294   2      3.7894402113768506      71.906938650130044      7.0523489108000001
   295   1      3.7894402120391013       28.83671575717209      3.0874183849999999
   296   1      3.7894402120391013       28.83671575717209      7.1900737958000001
   297   2      3.7907039888630334      6.3307151908419703           13.4298776893
   298   4      3.7908172781358536      49.400730897049854      13.808564961699998
   299   2      3.7908172781358536      49.400730897049854      11.293897032299999
   300   2      3.7908172781358536      49.400730897049854      15.579784652299999
   301   3      3.8777221278669072      32.714149119366404           11.8416575997
   302   3      3.8777221278669072      32.714149119366404           16.1275452197
   303   2      3.8780232129098686      75.784805778435711           13.4298776893
   304   2        3.88186558251995      20.610857736892708      5.0635815537999997
   305   2      3.8818655829275839      63.681080629596032      5.0635815537999997
   306   2      3.9653424369567079      59.098450579297676           13.4298776893
   307   4      3.9654557262292229      16.028020498774236      13.808564961699998
   308   2      3.9654557262292229      16.028020498774236      11.293897032299999
   309   2      3.9654557262292229      16.028020498774236      15.579784652299999
   310   4      3.9742909534084339        55.4552226093165      5.2105475048000001
   311   2      3.9742909534084339        55.4552226093165               2.9496935
   312   2      3.9742909534084339        55.4552226093165      7.0523489108000001
   313   1       3.974290954070689      12.384999716358708      3.0874183849999999
   314   1       3.974290954070689      12.384999716358708      7.1900737958000001
   315   2      4.0524738652334023      42.411454427298665           13.4298776893
   316   3      4.0527749502766701      85.482111086367553           11.8416575997
   317   3      4.0527749502766701      85.482111086367553           16.1275452197
   318   2        4.06671632455169      4.1591416960791703      5.0635815537999997
   319   2      4.0667163249593248      47.229364588782502      5.0635815537999997
   320   4      4.1400941743232034      68.795755887229888      13.808564961699998
   321   2      4.1400941743232034      68.795755887229888      11.293897032299999
   322   2      4.1400941743232034      68.795755887229888      15.579784652299999
   323   2      4.1402074635960231      25.725325806706348           13.4298776893
   324   4      4.1591416954400211       39.00350656850312      5.2105475048000001
   325   2      4.1591416954400211       39.00350656850312               2.9496935
   326   2      4.1591416954400211       39.00350656850312      7.0523489108000001
   327   1      4.1591416961024281      82.073729462276333      3.0874183849999999
   328   1      4.1591416961024281      82.073729462276333      7.1900737958000001
   329   2      4.2275266876425555       9.038970607568503           13.4298776893
   330   3      4.2276399769156798      52.108986313776228           11.8416575997
   331   3      4.2276399769156798      52.108986313776228           16.1275452197
   332   2      4.2515670665832754      73.847871441996787      5.0635815537999997
   333   2      4.2515670669909129      30.777648547968962      5.0635815537999997
   334   4      4.3145448266467366      35.422404536092756      13.808564961699998
   335   2      4.3145448266467366      35.422404536092756      11.293897032299999
   336   2      4.3145448266467366      35.422404536092756      15.579784652299999
   337   2       4.314845911689698      78.493061195161971           13.4298776893
   338   4      4.3439924374716083      22.551790527689576      5.2105475048000001
   339   2      4.3439924374716083      22.551790527689576               2.9496935
   340   2      4.3439924374716083      22.551790527689576      7.0523489108000001
   341   1      4.3439924381340145      65.622013421462952      3.0874183849999999
   342   1      4.3439924381340145      65.622013421462952      7.1900737958000001
   343   2      4.4021651357365377      61.806705996024093           13.4298776893
   344   3      4.4022784250093583      18.736275915500507           11.8416575997
   345   3      4.4022784250093583      18.736275915500507           16.1275452197
   346   2      4.4364178086148627      57.396155401183414      5.0635815537999997
   347   2      4.4364178090225002      14.325932507155576      5.0635815537999997
   348   2      4.4892965640135358      45.119709844024975           13.4298776893
   349   4       4.489597649055888      2.0499207163626565      13.808564961699998
   350   2       4.489597649055888      2.0499207163626565      11.293897032299999
   351   2       4.489597649055888      2.0499207163626565      15.579784652299999
   352   4      4.5288431795032729      6.1000744868761956      5.2105475048000001
   353   2      4.5288431795032729      6.1000744868761956               2.9496935
   354   2      4.5288431795032729      6.1000744868761956      7.0523489108000001
   355   1      4.5288431801656017      49.170297380649679      3.0874183849999999
   356   1      4.5288431801656017      49.170297380649679      7.1900737958000001
   357   3      4.5769168731030323      71.504011303956091           11.8416575997