(written by ASE)

6713 atoms
4 atom types

0.0      86.140445786731163  xlo xhi
0.0      86.140445786731163  ylo yhi
0.0      63.177851719700001  zlo zhi

Masses

     1       137.3269999646734 # Ba
     2      15.998999995884349 # O
     3      207.19999994669897 # Pb
     4      47.866999987686484 # Ti

Atoms # atomic

     1   4  1.6648248436290374e-10       64.60533433977723      5.2105475048000001
     2   2  1.6648248436290374e-10       64.60533433977723               2.9496935
     3   2  1.6648248436290374e-10       64.60533433977723      7.0523489108000001
     4   2  1.0405875736189799e-05      6.8635700023344581           13.4298776893
     5   4  8.7985809468933782e-05      36.220909507342576      13.808564961699998
     6   2  8.7985809468933782e-05      36.220909507342576      11.293897032299999
     7   2  8.7985809468933782e-05      36.220909507342576      15.579784652299999
     8   3  0.00010879756095773204      49.948049512011643           11.8416575997
     9   3  0.00010879756095773204      49.948049512011643           16.1275452197
    10   2  0.00018637749455622469      79.305389017020062           13.4298776893
    11   4     0.06335188005687617       63.68264953794035      13.808564961699998
    12   2     0.06335188005687617       63.68264953794035      11.293897032299999
    13   2     0.06335188005687617       63.68264953794035      15.579784652299999
    14   2    0.065108054244054733      20.612633867387729           13.4298776893
    15   2    0.092425370647329017      56.379476319497776      5.0635815537999997
    16   2     0.09242537130973702      13.309253426539748      5.0635815537999997
    17   2     0.15191190074133745      34.328646476821632           13.4298776893
    18   3     0.15366807492882298      77.399076593000174           11.8416575997
    19   3     0.15366807492882298      77.399076593000174           16.1275452197
    20   1     0.18485074179043329      5.0833954062605162      3.0874183849999999
    21   1     0.18485074179043329      5.0833954062605162      7.1900737958000001
    22   4     0.18485074219806999      48.153618298963771      5.2105475048000001
    23   2     0.18485074219806999      48.153618298963771               2.9496935
    24   2     0.18485074219806999      48.153618298963771      7.0523489108000001
    25   2     0.23871574723862013      48.044659086255841           13.4298776893
    26   4     0.24047192142595086      4.9746434157026007      13.808564961699998
    27   2     0.24047192142595086      4.9746434157026007      11.293897032299999
    28   2     0.24047192142595086      4.9746434157026007      15.579784652299999
    29   2     0.27727611267891877       39.92776027868458      5.0635815537999997
    30   2     0.27727611334132513      82.997983172457367      5.0635815537999997
    31   2     0.32551959373589939      61.760671695689744           13.4298776893
    32   3     0.32727576792338492      18.690656025137116           11.8416575997
    33   3     0.32727576792338492      18.690656025137116           16.1275452197
    34   1     0.36970148382217621      74.772125152178148      3.0874183849999999
    35   1     0.36970148382217621      74.772125152178148      7.1900737958000001
    36   4     0.36970148422965482      31.701902258150309      5.2105475048000001
    37   2     0.36970148422965482      31.701902258150309               2.9496935
    38   2     0.36970148422965482      31.701902258150309      7.0523489108000001
    39   4     0.41407961442051555       32.40666863457102      13.808564961699998
    40   2     0.41407961442051555       32.40666863457102      11.293897032299999
    41   2     0.41407961442051555       32.40666863457102      15.579784652299999
    42   2     0.41583578860769438      75.477098750749249           13.4298776893
    43   2     0.46212685471050435       23.47604423787093      5.0635815537999997
    44   2     0.46212685537291115      66.546267131643987      5.0635815537999997
    45   3     0.52736622318287107      46.018968575266562           11.8416575997
    46   3     0.52736622318287107      46.018968575266562           16.1275452197
    47   2     0.52912239737020361      2.9489529047139409           13.4298776893
    48   1     0.55455222585360853      58.320409111364761      3.0874183849999999
    49   1     0.55455222585360853      58.320409111364761      7.1900737958000001
    50   4      0.5545522262612419      15.250186217336848      5.2105475048000001
    51   2      0.5545522262612419      15.250186217336848               2.9496935
    52   2      0.5545522262612419      15.250186217336848      7.0523489108000001
    53   4     0.58768730741507835      59.838693853439132      13.808564961699998
    54   2     0.58768730741507835      59.838693853439132      11.293897032299999
    55   2     0.58768730741507835      59.838693853439132      15.579784652299999
    56   2     0.59027237285346557      16.761653486136879           13.4298776893
    57   2     0.64697759674224464      7.0243281970573888      5.0635815537999997
    58   2     0.64697759740449901      50.094551090830606      5.0635815537999997
    59   2     0.67624732809938748      30.484690792320414           13.4298776893
    60   3     0.67800350228687156      73.555120908498353           11.8416575997
    61   3     0.67800350228687156      73.555120908498353           16.1275452197
    62   1     0.73940296788534865      41.868693070551075      3.0874183849999999
    63   1     0.73940296788534865      41.868693070551075      7.1900737958000001
    64   4      0.7394029682928297      84.938915963254559      5.2105475048000001
    65   2      0.7394029682928297      84.938915963254559               2.9496935
    66   2      0.7394029682928297      84.938915963254559      7.0523489108000001
    67   2     0.76305117459682237      44.200703401754318           13.4298776893
    68   4     0.76480734878400036       1.130687731201687      13.808564961699998
    69   2     0.76480734878400036       1.130687731201687      11.293897032299999
    70   2     0.76480734878400036       1.130687731201687      15.579784652299999
    71   2     0.83182833877383144      76.713057942975027      5.0635815537999997
    72   2     0.83182833943608603      33.642835050017069      5.0635815537999997
    73   2     0.87550889210797322      57.820028039199649           13.4298776893
    74   3     0.87726506629545675      14.750012368646713           11.8416575997
    75   3     0.87726506629545675      14.750012368646713           16.1275452197
    76   1     0.92425370991693379       25.41697702973784      3.0874183849999999
    77   1     0.92425370991693379       25.41697702973784      7.1900737958000001
    78   4     0.92425371032441872      68.487199922441022      5.2105475048000001
    79   2     0.92425371032441872      68.487199922441022               2.9496935
    80   2     0.92425371032441872      68.487199922441022      7.0523489108000001
    81   4     0.93841504177856572      28.562712950069496      13.808564961699998
    82   2     0.93841504177856572      28.562712950069496      11.293897032299999
    83   2     0.93841504177856572      28.562712950069496      15.579784652299999
    84   2     0.94017121596589992      71.633143066248053           13.4298776893
    85   2      1.0166790808054176      60.261341902161632      5.0635815537999997
    86   2      1.0166790814676729      17.191119009203685      5.0635815537999997
    87   3      1.0252188882758475      42.278725559503705           11.8416575997
    88   3      1.0252188882758475      42.278725559503705           16.1275452197
    89   2      1.0269750624631793       85.34915567568224           13.4298776893
    90   1      1.1091044519486748      8.9652609889241504      3.0874183849999999
    91   1      1.1091044519486748      8.9652609889241504      7.1900737958000001
    92   4       1.109104452356156      52.035483881627478      5.2105475048000001
    93   2       1.109104452356156      52.035483881627478               2.9496935
    94   2       1.109104452356156      52.035483881627478      7.0523489108000001
    95   4      1.1120227347731284      55.994738168937609      13.808564961699998
    96   2      1.1120227347731284      55.994738168937609      11.293897032299999
    97   2      1.1120227347731284      55.994738168937609      15.579784652299999
    98   2      1.1137789089604606      12.924722498384675           13.4298776893
    99   2      1.2015298228370064      43.809625861348096      5.0635815537999997
   100   2      1.2015298234992595     0.73940296839030095      5.0635815537999997
   101   3      1.2240660066588303       69.61757515475729           11.8416575997
   102   3      1.2240660066588303       69.61757515475729           16.1275452197
   103   2      1.2258221808461609      26.547559484204669           13.4298776893
   104   2      1.2873866019550255        40.3567477172531           13.4298776893
   105   4      1.2891427761422025       83.42717783343133      13.808564961699998
   106   2      1.2891427761422025       83.42717783343133      11.293897032299999
   107   2      1.2891427761422025       83.42717783343133      15.579784652299999
   108   1      1.2939551939802609       78.65399073484194      3.0874183849999999
   109   1      1.2939551939802609       78.65399073484194      7.1900737958000001
   110   4       1.293955194387743      35.583767840814097      5.2105475048000001
   111   2       1.293955194387743      35.583767840814097               2.9496935
   112   2       1.293955194387743      35.583767840814097      7.0523489108000001
   113   2      1.3741904484521554      54.072760326686691           13.4298776893
   114   3      1.3759466226396388      11.002744656134066           11.8416575997
   115   3      1.3759466226396388      11.002744656134066           16.1275452197
   116   2      1.3863805648685934      27.357909820534712      5.0635815537999997
   117   2      1.3863805655308463      70.428132714307921      5.0635815537999997
   118   4      1.4627504691367679      24.718757265568279      13.808564961699998
   119   2      1.4627504691367679      24.718757265568279      11.293897032299999
   120   2      1.4627504691367679      24.718757265568279      15.579784652299999
   121   2      1.4645066433239484      67.789187381746515           13.4298776893
   122   1      1.4788059360118488      62.202274694028546      3.0874183849999999
   123   1      1.4788059360118488      62.202274694028546      7.1900737958000001
   124   4      1.4788059364193313      19.132051800000561      5.2105475048000001
   125   2      1.4788059364193313      19.132051800000561               2.9496935
   126   2      1.4788059364193313      19.132051800000561      7.0523489108000001
   127   2      1.5712313069001793      10.906193779721251      5.0635815537999997
   128   2      1.5712313075624325      53.976416673494541      5.0635815537999997
   129   2      1.5722086755839264       81.41863461869022           13.4298776893
   130   3      1.5739648497712599       38.34861894813713           11.8416575997
   131   3      1.5739648497712599       38.34861894813713           16.1275452197
   132   4      1.6363581621310266      52.150782484436085      13.808564961699998
   133   2      1.6363581621310266      52.150782484436085      11.293897032299999
   134   2      1.6363581621310266      52.150782484436085      15.579784652299999
   135   2      1.6381143363185109      9.0807668138834572           13.4298776893
   136   1      1.6636566780434359      45.750558653215009      3.0874183849999999
   137   1      1.6636566780434359      45.750558653215009      7.1900737958000001
   138   4      1.6636566784510705      2.6803357591870198      5.2105475048000001
   139   2      1.6636566784510705      2.6803357591870198               2.9496935
   140   2      1.6636566784510705      2.6803357591870198      7.0523489108000001
   141   3      1.7231620086284629      65.866795093869996           11.8416575997
   142   3      1.7231620086284629      65.866795093869996           16.1275452197
   143   2      1.7249181828156397      22.796779423317361           13.4298776893
   144   2      1.7560820489319198      80.594923525638805      5.0635815537999997
   145   2      1.7560820495940197      37.524700632681196      5.0635815537999997
   146   2      1.8117220293130756      36.512792032751577           13.4298776893
   147   4      1.8134782035002526      79.583222148930119      13.808564961699998
   148   2      1.8134782035002526      79.583222148930119      11.293897032299999
   149   2      1.8134782035002526      79.583222148930119      15.579784652299999
   150   1       1.848507420075022      29.298842612401472      3.0874183849999999
   151   1       1.848507420075022      29.298842612401472      7.1900737958000001
   152   4      1.8485074204826557      72.369065505104786      5.2105475048000001
   153   2      1.8485074204826557      72.369065505104786               2.9496935
   154   2      1.8485074204826557      72.369065505104786      7.0523489108000001
   155   2      1.9185951703218507      50.149263966444451           13.4298776893
   156   3      1.9203513445090286      7.0792482958915199           11.8416575997
   157   3      1.9203513445090286      7.0792482958915199           16.1275452197
   158   2      1.9409327909633545      64.143207484825581      5.0635815537999997
   159   2      1.9409327916257604      21.072984591867471      5.0635815537999997
   160   2       1.985329722307642      63.944817251619384           13.4298776893
   161   4      1.9870858964948181      20.874801581066752      13.808564961699998
   162   2      1.9870858964948181      20.874801581066752      11.293897032299999
   163   2      1.9870858964948181      20.874801581066752      15.579784652299999
   164   1      2.0333581621066097      12.847126571588243      3.0874183849999999
   165   1      2.0333581621066097      12.847126571588243      7.1900737958000001
   166   4      2.0333581625142458       55.91734946429127      5.2105475048000001
   167   2      2.0333581625142458       55.91734946429127               2.9496935
   168   2      2.0333581625142458       55.91734946429127      7.0523489108000001
   169   3      2.0738897429922547      34.590814190500964           11.8416575997
   170   3      2.0738897429922547      34.590814190500964           16.1275452197
   171   2      2.0756459171792812      77.661244306679194           13.4298776893
   172   2      2.1257835329950936      47.691491444012037      5.0635815537999997
   173   2      2.1257835336573478      4.6212685510543929      5.0635815537999997
   174   4      2.1606935894893828      48.306826799934562      13.808564961699998
   175   2      2.1606935894893828      48.306826799934562      11.293897032299999
   176   2      2.1606935894893828      48.306826799934562      15.579784652299999
   177   2      2.1624497636767135      5.2368111293819313           13.4298776893
   178   1      2.2182089041381978      82.535856317505875      3.0874183849999999
   179   1      2.2182089041381978      82.535856317505875      7.1900737958000001
   180   4      2.2182089045458331       39.46563342347789      5.2105475048000001
   181   2      2.2182089045458331       39.46563342347789               2.9496935
   182   2      2.2182089045458331       39.46563342347789      7.0523489108000001
   183   3      2.2671522848725543      61.946811082002569           11.8416575997
   184   3      2.2671522848725543      61.946811082002569           16.1275452197
   185   2      2.2689084590597322       18.87679541144978           13.4298776893
   186   2        2.31063427502668      31.239775403198653      5.0635815537999997
   187   2      2.3106342756889324      74.309998296971941      5.0635815537999997
   188   2       2.336057456670972      32.668836348250046           13.4298776893
   189   4      2.3378136308584585      75.739266464428283      13.808564961699998
   190   2      2.3378136308584585      75.739266464428283      11.293897032299999
   191   2      2.3378136308584585      75.739266464428283      15.579784652299999
   192   1      2.4030596461697824       66.08414027669248      3.0874183849999999
   193   1      2.4030596461697824       66.08414027669248      7.1900737958000001
   194   4      2.4030596465774186      23.013917382664346      5.2105475048000001
   195   2      2.4030596465774186      23.013917382664346               2.9496935
   196   2      2.4030596465774186      23.013917382664346      7.0523489108000001
   197   2      2.4228613031684079       46.38484895768395           13.4298776893
   198   3      2.4246174773558908      3.3148332871313215           11.8416575997
   199   3      2.4246174773558908      3.3148332871313215           16.1275452197
   200   2      2.4954850170582672      14.788059362385265      5.0635815537999997
   201   2      2.4954850177206738      57.858282256158176      5.0635815537999997
   202   2      2.5096651496655364      60.100861567118159           13.4298776893
   203   4      2.5114213238530212      17.030845896565229      13.808564961699998
   204   2      2.5114213238530212      17.030845896565229      11.293897032299999
   205   2      2.5114213238530212      17.030845896565229      15.579784652299999
   206   1      2.5879103882013701      49.632424235879107      3.0874183849999999
   207   1      2.5879103882013701      49.632424235879107      7.1900737958000001
   208   4      2.5879103886090054      6.5622013418511109      5.2105475048000001
   209   2      2.5879103886090054      6.5622013418511109               2.9496935
   210   2      2.5879103886090054      6.5622013418511109      7.0523489108000001
   211   2      2.6152949537978074      73.747870545935029           13.4298776893
   212   3      2.6170511279850621      30.677854875382248           11.8416575997
   213   3      2.6170511279850621      30.677854875382248           16.1275452197
   214   2      2.6803357590898562      84.476789108302981      5.0635815537999997
   215   2      2.6803357597522623      41.406566215344796      5.0635815537999997
   216   4      2.6850290168475857      44.462871115433344      13.808564961699998
   217   2      2.6850290168475857      44.462871115433344      11.293897032299999
   218   2      2.6850290168475857      44.462871115433344      15.579784652299999
   219   2      2.6867851910347631       1.392855444880712           13.4298776893
   220   3      2.7718328633447138      58.178883724867248           11.8416575997
   221   3      2.7718328633447138      58.178883724867248           16.1275452197
   222   1      2.7727611302331119       33.18070819506557      3.0874183849999999
   223   1      2.7727611302331119       33.18070819506557      7.1900737958000001
   224   4      2.7727611306405926      76.250931087768734      5.2105475048000001
   225   2      2.7727611306405926      76.250931087768734               2.9496935
   226   2      2.7727611306405926      76.250931087768734      7.0523489108000001
   227   2      2.7735890375318917      15.108868054314309           13.4298776893
   228   2      2.8603928840291748       28.82488066374852           13.4298776893
   229   4      2.8621490582166609      71.895310779927058      13.808564961699998
   230   2      2.8621490582166609      71.895310779927058      11.293897032299999
   231   2      2.8621490582166609      71.895310779927058      15.579784652299999
   232   2      2.8651865011215931      68.025073067489359      5.0635815537999997
   233   2      2.8651865017838483      24.954850174531412      5.0635815537999997
   234   1      2.9576118722646974      16.728992154252026      3.0874183849999999
   235   1      2.9576118722646974      16.728992154252026      7.1900737958000001
   236   4      2.9576118726721798      59.799215046955283      5.2105475048000001
   237   2      2.9576118726721798      59.799215046955283               2.9496935
   238   2      2.9576118726721798      59.799215046955283      7.0523489108000001
   239   3      2.9634376227229051      85.548930009867945           11.8416575997
   240   3      2.9634376227229051      85.548930009867945           16.1275452197
   241   2      2.9651937969103908      42.478914339315011           13.4298776893
   242   2      3.0340005770238911      56.256905882616635           13.4298776893
   243   4      3.0357567512109171      13.186890212063702      13.808564961699998
   244   2      3.0357567512109171      13.186890212063702      11.293897032299999
   245   2      3.0357567512109171      13.186890212063702      15.579784652299999
   246   2      3.0500372431531804      51.573357026675822      5.0635815537999997
   247   2      3.0500372438154351      8.5031341337177189      5.0635815537999997
   248   3      3.1225605977085058       26.90290282149822           11.8416575997
   249   3      3.1225605977085058       26.90290282149822           16.1275452197
   250   2      3.1243167718955287      69.973332937676147           13.4298776893
   251   1      3.1424626142962846     0.27727611343864283      3.0874183849999999
   252   1      3.1424626142962846     0.27727611343864283      7.1900737958000001
   253   4      3.1424626147039212      43.347499006141824      5.2105475048000001
   254   2      3.1424626147039212      43.347499006141824               2.9496935
   255   2      3.1424626147039212      43.347499006141824      7.0523489108000001
   256   4       3.209364444205788      40.618915430932127      13.808564961699998
   257   2       3.209364444205788      40.618915430932127      11.293897032299999
   258   2       3.209364444205788      40.618915430932127      15.579784652299999
   259   2      3.2111206183929668      83.689345547110364           13.4298776893
   260   2      3.2348879851847672      35.121640985862435      5.0635815537999997
   261   2      3.2348879858470201      78.191863879635648      5.0635815537999997
   262   2        3.31158029164816      11.209543687069404           13.4298776893
   263   3      3.3133364658354516      54.279973803247486           11.8416575997
   264   3      3.3133364658354516      54.279973803247486           16.1275452197
   265   1      3.3273133563280268       69.96600585935613      3.0874183849999999
   266   1      3.3273133563280268       69.96600585935613      7.1900737958000001
   267   4      3.3273133567355075      26.895782965328284      5.2105475048000001
   268   2      3.3273133567355075      26.895782965328284               2.9496935
   269   2      3.3273133567355075      26.895782965328284      7.0523489108000001
   270   2      3.3847283113875313      24.980924979247611           13.4298776893
   271   4      3.3864844855747109      68.051355095425535      13.808564961699998
   272   2      3.3864844855747109      68.051355095425535      11.293897032299999
   273   2      3.3864844855747109      68.051355095425535      15.579784652299999
   274   2      3.4197387272163562      18.669924945048901      5.0635815537999997
   275   2      3.4197387278786096      61.740147838822267      5.0635815537999997
   276   2      3.4715321578846599      38.696937588681209           13.4298776893
   277   3      3.4732883320721442      81.767367704859751           11.8416575997
   278   3      3.4732883320721442      81.767367704859751           16.1275452197
   279   1      3.5121640983596114      53.514289818542736      3.0874183849999999
   280   1      3.5121640983596114      53.514289818542736      7.1900737958000001
   281   4       3.512164098767093      10.444066924514898      5.2105475048000001
   282   2       3.512164098767093      10.444066924514898               2.9496935
   283   2       3.512164098767093      10.444066924514898      7.0523489108000001
   284   2      3.5583360043817889      52.412950198115112           13.4298776893
   285   4      3.5600921785692732      9.3429345275621767      13.808564961699998
   286   2      3.5600921785692732      9.3429345275621767      11.293897032299999
   287   2      3.5600921785692732      9.3429345275621767      15.579784652299999
   288   2      3.6045894692479425      2.2182089042355146      5.0635815537999997
   289   2      3.6045894699101968       45.28843179800873      5.0635815537999997
   290   3      3.6601374061989977       23.00709080262736           11.8416575997
   291   3      3.6601374061989977       23.00709080262736           16.1275452197
   292   2      3.6618935803862889      66.077520918805746           13.4298776893
   293   1      3.6970148403911978      37.062573777729199      3.0874183849999999
   294   1      3.6970148403911978      37.062573777729199      7.1900737958000001
   295   4      3.6970148407986771      80.132796670432526      5.2105475048000001
   296   2      3.6970148407986771      80.132796670432526               2.9496935
   297   2      3.6970148407986771      80.132796670432526      7.0523489108000001
   298   4      3.7336998715636835      36.774959746430596      13.808564961699998
   299   2      3.7336998715636835      36.774959746430596      11.293897032299999
   300   2      3.7336998715636835      36.774959746430596      15.579784652299999
   301   2      3.7354560457510133      79.845389862609139           13.4298776893
   302   2      3.7894402112795302      71.906938650153307      5.0635815537999997
   303   2      3.7894402119417832      28.836715757195197      5.0635815537999997
   304   3      3.8205037180609671        50.4909723558645           11.8416575997
   305   3      3.8205037180609671        50.4909723558645           16.1275452197
   306   2      3.8222598922482982       7.420956685311566           13.4298776893
   307   1      3.8818655824227855      20.610857736915662      3.0874183849999999
   308   1      3.8818655824227855      20.610857736915662      7.1900737958000001
   309   4      3.8818655828302671      63.681080629619331      5.2105475048000001
   310   2      3.8818655828302671      63.681080629619331               2.9496935
   311   2      3.8818655828302671      63.681080629619331      7.0523489108000001
   312   4      3.9073075645582507      64.206984965298403      13.808564961699998
   313   2      3.9073075645582507      64.206984965298403      11.293897032299999
   314   2      3.9073075645582507      64.206984965298403      15.579784652299999
   315   2      3.9090637387455809      21.136969294745779           13.4298776893
   316   2       3.974290953311117      55.455222609339764      5.0635815537999997
   317   2      3.9742909539733704       12.38499971638181      5.0635815537999997
   318   3      4.0065239009367994      77.878165937112612           11.8416575997
   319   3      4.0065239009367994      77.878165937112612           16.1275452197
   320   2      4.0082800751242562      34.808150266559984           13.4298776893
   321   1      4.0667163244543723      4.1591416961024281      3.0874183849999999
   322   1      4.0667163244543723      4.1591416961024281      7.1900737958000001
   323   4      4.0667163248618561      47.229364588805765      5.2105475048000001
   324   2      4.0667163248618561      47.229364588805765               2.9496935
   325   2      4.0667163248618561      47.229364588805765      7.0523489108000001
   326   2      4.0826714317399926      48.568994513613589           13.4298776893
   327   4       4.084427605927476      5.4989788430609563      13.808564961699998
   328   2       4.084427605927476      5.4989788430609563      11.293897032299999
   329   2       4.084427605927476      5.4989788430609563      15.579784652299999
   330   2      4.1591416953427025      39.003506568526412      5.0635815537999997
   331   2      4.1591416960051113       82.07372946229944      5.0635815537999997
   332   2       4.169475278237428      62.285007123048103           13.4298776893
   333   3      4.1712314524247578      19.214991452495472           11.8416575997
   334   3      4.1712314524247578      19.214991452495472           16.1275452197
   335   1      4.2515670664859586       73.84787144202005      3.0874183849999999
   336   1      4.2515670664859586       73.84787144202005      7.1900737958000001
   337   4      4.2515670668935943      30.777648547992147      5.2105475048000001
   338   2      4.2515670668935943      30.777648547992147               2.9496935
   339   2      4.2515670668935943      30.777648547992147      7.0523489108000001
   340   4      4.2580352989220405      32.931004061929073      13.808564961699998
   341   2      4.2580352989220405      32.931004061929073      11.293897032299999
   342   2      4.2580352989220405      32.931004061929073      15.579784652299999
   343   2      4.2597914731092192      76.001434178107303           13.4298776893
   344   2      4.3439924373742906      22.551790527712839      5.0635815537999997
   345   2      4.3439924380366977      65.622013421486059      5.0635815537999997
   346   2      4.3546665698620384      3.5387796143143655           13.4298776893
   347   3      4.3564227440493291      46.609209730492744           11.8416575997
   348   3      4.3564227440493291      46.609209730492744           16.1275452197
   349   4      4.4316429919163003      60.363029280797193      13.808564961699998
   350   2      4.4316429919163003      60.363029280797193      11.293897032299999
   351   2      4.4316429919163003      60.363029280797193      15.579784652299999
   352   2      4.4333991661037828      17.293013610244557           13.4298776893
   353   1      4.4364178085175459      57.396155401206521      3.0874183849999999
   354   1      4.4364178085175459      57.396155401206521      7.1900737958000001
   355   4      4.4364178089251816       14.32593250717853      5.2105475048000001
   356   2      4.4364178089251816       14.32593250717853               2.9496935
   357   2      4.4364178089251816       14.32593250717853      7.0523489108000001