(written by ASE)

17647 atoms
4 atom types

0.0      139.66326832850001  xlo xhi
0.0      139.66326832850001  ylo yhi
0.0      63.177851719700001  zlo zhi

Masses

     1       137.3269999646734 # Ba
     2      15.998999995884349 # O
     3      207.19999994669897 # Pb
     4      47.866999987686484 # Ti

Atoms # atomic

     1   1     0.19951895429929373      88.386896956399724      3.0874183849999999
     2   1     0.19951895429929373      88.386896956399724      7.1900737958000001
     3   1     0.19951895429942712       8.579315054399995      3.0874183849999999
     4   1     0.19951895429942712       8.579315054399995      7.1900737958000001
     5   1      0.1995189542994289      28.531210529900175      3.0874183849999999
     6   1      0.1995189542994289      28.531210529900175      7.1900737958000001
     7   1     0.19951895429942623      48.483106005399605      3.0874183849999999
     8   1     0.19951895429942623      48.483106005399605      7.1900737958000001
     9   1     0.19951895429942357      68.435001480900041      3.0874183849999999
    10   1     0.19951895429942357      68.435001480900041      7.1900737958000001
    11   1     0.19951895429942962      108.33879243189965      3.0874183849999999
    12   1     0.19951895429942962      108.33879243189965      7.1900737958000001
    13   1     0.19951895429954561      128.29068790739959      3.0874183849999999
    14   1     0.19951895429954561      128.29068790739959      7.1900737958000001
    15   2     0.19951895473929454      18.555262791820059      5.0635815537999997
    16   2      0.1995189547392951      38.507158267319681      5.0635815537999997
    17   2     0.19951895473929313      58.459053742819791      5.0635815537999997
    18   2     0.19951895473929046      78.410949218319786      5.0635815537999997
    19   2     0.19951895473929135      98.362844693819724      5.0635815537999997
    20   2     0.19951895473929793      118.31474016931965      5.0635815537999997
    21   2     0.19951895473930026      138.26663564482001      5.0635815537999997
    22   2     0.59855686413923848      15.761997426019889      5.0635815537999997
    23   2     0.59855686413923959      35.713892901519813      5.0635815537999997
    24   2     0.59855686413923082        95.5695793280196      5.0635815537999997
    25   2     0.59855686413948561      55.665788377019751      5.0635815537999997
    26   2     0.59855686413948861      75.617683852519676      5.0635815537999997
    27   2     0.59855686413948894      115.52147480351952      5.0635815537999997
    28   2     0.59855686413947851      135.47337027901997      5.0635815537999997
    29   4     0.59855686457947876      5.7860496879397108      5.2105475048000001
    30   2     0.59855686457947876      5.7860496879397108               2.9496935
    31   2     0.59855686457947876      5.7860496879397108      7.0523489108000001
    32   4     0.59855686457947543       25.73794516343964      5.2105475048000001
    33   2     0.59855686457947543       25.73794516343964               2.9496935
    34   2     0.59855686457947543       25.73794516343964      7.0523489108000001
    35   4     0.59855686457948087      45.689840638939572      5.2105475048000001
    36   2     0.59855686457948087      45.689840638939572               2.9496935
    37   2     0.59855686457948087      45.689840638939572      7.0523489108000001
    38   4     0.59855686457947466       65.64173611443951      5.2105475048000001
    39   2     0.59855686457947466       65.64173611443951               2.9496935
    40   2     0.59855686457947466       65.64173611443951      7.0523489108000001
    41   4      0.5985568645794791      85.593631589939676      5.2105475048000001
    42   2      0.5985568645794791      85.593631589939676               2.9496935
    43   2      0.5985568645794791      85.593631589939676      7.0523489108000001
    44   4     0.59855686457947288      105.54552706543961      5.2105475048000001
    45   2     0.59855686457947288      105.54552706543961               2.9496935
    46   2     0.59855686457947288      105.54552706543961      7.0523489108000001
    47   4     0.59855686457947521      125.49742254093981      5.2105475048000001
    48   2     0.59855686457947521      125.49742254093981               2.9496935
    49   2     0.59855686457947521      125.49742254093981      7.0523489108000001
    50   3      0.9569521158513481      107.66282555792743           11.8416575997
    51   3      0.9569521158513481      107.66282555792743           16.1275452197
    52   2     0.95695558109939338      105.72304960792999           13.4298776893
    53   3     0.95695904634867057        103.783273657934           11.8416575997
    54   3     0.95695904634867057        103.783273657934           16.1275452197
    55   2     0.95696251159771484      101.84349770793679           13.4298776893
    56   3     0.95696597684649753      99.903721757940062           11.8416575997
    57   3     0.95696597684649753      99.903721757940062           16.1275452197
    58   2     0.95696944209529022      97.963945807942594           13.4298776893
    59   3     0.95697290734382134      96.024169857945878           11.8416575997
    60   3     0.95697290734382134      96.024169857945878           16.1275452197
    61   2     0.95697637259262402      94.084393907948922           13.4298776893
    62   3     0.95697983784141238      92.144617957952192           11.8416575997
    63   3     0.95697983784141238      92.144617957952192           16.1275452197
    64   2     0.95698330309019375       90.20484200795498           13.4298776893
    65   3     0.95698676833897789      88.265066057958492           11.8416575997
    66   3     0.95698676833897789      88.265066057958492           16.1275452197
    67   2     0.95699023358801638      86.325290107961294           13.4298776893
    68   3     0.95699369883682472      84.385514157964323           11.8416575997
    69   3     0.95699369883682472      84.385514157964323           16.1275452197
    70   2     0.95699716408534885      82.445738207967594           13.4298776893
    71   3     0.95700062933389274      80.505962257970623           11.8416575997
    72   3     0.95700062933389274      80.505962257970623           16.1275452197
    73   2     0.95700409458293134       78.56618630797341           13.4298776893
    74   2      0.9570110250805095      74.686634407979724           13.4298776893
    75   3     0.95701449032929509      72.746858457983492           11.8416575997
    76   3     0.95701449032929509      72.746858457983492           16.1275452197
    77   2     0.95701795557833369       70.80708250798628           13.4298776893
    78   3     0.95702142082687758      68.867306557989551           11.8416575997
    79   3     0.95702142082687758      68.867306557989551           16.1275452197
    80   2     0.95702488607541447       66.92753060799258           13.4298776893
    81   3     0.95702835132420794      64.987754657995865           11.8416575997
    82   3     0.95702835132420794      64.987754657995865           16.1275452197
    83   2     0.95703181657274905      63.047978707998404           13.4298776893
    84   3     0.95703528182154096      61.108202758001674           11.8416575997
    85   3     0.95703528182154096      61.108202758001674           16.1275452197
    86   2     0.95703874707057379      59.168426808004462           13.4298776893
    87   3     0.95704221231985676      57.228650858008486           11.8416575997
    88   3     0.95704221231985676      57.228650858008486           16.1275452197
    89   2     0.95704567756789838      55.288874908011024           13.4298776893
    90   3     0.95704914281694331      53.349098958014551           11.8416575997
    91   3     0.95704914281694331      53.349098958014551           16.1275452197
    92   2     0.95705260806597547      51.409323008017331           13.4298776893
    93   3     0.95705607331452014      49.469547058020609           11.8416575997
    94   3     0.95705607331452014      49.469547058020609           16.1275452197
    95   2     0.95705953856330639      47.529771108023148           13.4298776893
    96   3     0.95706300381209553      45.589995158026426           11.8416575997
    97   3     0.95706300381209553      45.589995158026426           16.1275452197
    98   2     0.95706646906088533      43.650219208029704           13.4298776893
    99   3     0.95706993431017329       41.71044325803274           11.8416575997
   100   3     0.95706993431017329       41.71044325803274           16.1275452197
   101   2     0.95707339955821635       39.77066730803552           13.4298776893
   102   3     0.95707686480725485      37.830891358039047           11.8416575997
   103   3     0.95707686480725485      37.830891358039047           16.1275452197
   104   2     0.95708033005628979      35.891115408041834           13.4298776893
   105   3     0.95708379530458509      33.951339458044863           11.8416575997
   106   3     0.95708379530458509      33.951339458044863           16.1275452197
   107   2     0.95708726055362081      32.011563508047644           13.4298776893
   108   2     0.95709419105120119      28.132011608054452           13.4298776893
   109   3     0.95709765629998922      26.192235658057733           11.8416575997
   110   3     0.95709765629998922      26.192235658057733           16.1275452197
   111   2     0.95710112154877658      24.252459708060265           13.4298776893
   112   3     0.95710458679731814      22.312683758063546           11.8416575997
   113   3     0.95710458679731814      22.312683758063546           16.1275452197
   114   2      0.9571080520461076      20.372907808066085           13.4298776893
   115   3      0.9571115172948953      18.433131858069363           11.8416575997
   116   3      0.9571115172948953      18.433131858069363           16.1275452197
   117   2     0.95711498254393412      16.493355908072889           13.4298776893
   118   3     0.95711844779247479      14.553579958076167           11.8416575997
   119   3     0.95711844779247479      14.553579958076167           16.1275452197
   120   2      0.9571219130412647      12.613804008078704           13.4298776893
   121   3     0.95712537829030131      10.674028058082232           11.8416575997
   122   3     0.95712537829030131      10.674028058082232           16.1275452197
   123   2      0.9571288435393388      8.7342521080850126           13.4298776893
   124   3     0.95713230878787869      6.7944761580882931           11.8416575997
   125   3     0.95713230878787869      6.7944761580882931           16.1275452197
   126   2     0.95713577403642014      4.8547002080910762           13.4298776893
   127   3     0.95713923928520905      2.9149242580943557           11.8416575997
   128   3     0.95713923928520905      2.9149242580943557           16.1275452197
   129   2      0.9571427045339983     0.97514830809738662           13.4298776893
   130   3     0.95714616978279909      138.69864068660118           11.8416575997
   131   3     0.95714616978279909      138.69864068660118           16.1275452197
   132   2     0.95714963503156048      136.75886473660395           13.4298776893
   133   3     0.95715310028062039      134.81908878660724           11.8416575997
   134   3     0.95715310028062039      134.81908878660724           16.1275452197
   135   2      0.9571565655291373      132.87931283661001           13.4298776893
   136   3     0.95716003077793421       130.9395368866133           11.8416575997
   137   3     0.95716003077793421       130.9395368866133           16.1275452197
   138   2      0.9571634960264882       128.9997609366161           13.4298776893
   139   3     0.95716696127526668      127.05998498661961           11.8416575997
   140   3     0.95716696127526668      127.05998498661961           16.1275452197
   141   2     0.95717042652454531      125.12020903662288           13.4298776893
   142   2     0.95717735702214068       121.2406571366287           13.4298776893
   143   3     0.95718082227067181      119.30088118663198           11.8416575997
   144   3     0.95718082227067181      119.30088118663198           16.1275452197
   145   2     0.95718428751947304      117.36110523663501           13.4298776893
   146   3     0.95718775276824442      115.42132928663828           11.8416575997
   147   3     0.95718775276824442      115.42132928663828           16.1275452197
   148   2     0.95719121801679119      113.48155333664083           13.4298776893
   149   3      0.9571946832655811      111.54177738664411           11.8416575997
   150   3      0.9571946832655811      111.54177738664411           16.1275452197
   151   2     0.95719814851460816      109.60200143664714           13.4298776893
   152   3     0.96449249719681462      76.608408219662593           11.8416575997
   153   3     0.96449249719681462      76.608408219662593           16.1275452197
   154   3     0.96457566316725118      30.053785419736574           11.8416575997
   155   3     0.96457566316725118      30.053785419736574           16.1275452197
   156   3     0.96465882913743672      123.16243094831083           11.8416575997
   157   3     0.96465882913743672      123.16243094831083           16.1275452197
   158   1      0.9975947733192434      82.800366223259843      3.0874183849999999
   159   1      0.9975947733192434      82.800366223259843      7.1900737958000001
   160   1     0.99759477331937574      2.9927843212597418      3.0874183849999999
   161   1     0.99759477331937574      2.9927843212597418      7.1900737958000001
   162   1      0.9975947733193733      22.944679796759548      3.0874183849999999
   163   1      0.9975947733193733      22.944679796759548      7.1900737958000001
   164   1     0.99759477331937307       42.89657527225966      3.0874183849999999
   165   1     0.99759477331937307       42.89657527225966      7.1900737958000001
   166   1     0.99759477331937041      62.848470747759535      3.0874183849999999
   167   1     0.99759477331937041      62.848470747759535      7.1900737958000001
   168   1     0.99759477331937219      102.75226169875953      3.0874183849999999
   169   1     0.99759477331937219      102.75226169875953      7.1900737958000001
   170   1     0.99759477331937163      122.70415717425958      3.0874183849999999
   171   1     0.99759477331937163      122.70415717425958      7.1900737958000001
   172   2     0.99759477375924621      112.72820943617951      5.0635815537999997
   173   2     0.99759477375923999      132.68010491167945      5.0635815537999997
   174   2     0.99759477375925476      32.920627534179303      5.0635815537999997
   175   2     0.99759477375949024      12.968732058679374      5.0635815537999997
   176   2     0.99759477375948868      52.872523009679476      5.0635815537999997
   177   2     0.99759477375948313      72.824418485179649      5.0635815537999997
   178   2     0.99759477375948968      92.776313960679346      5.0635815537999997
   179   2      1.3966326831591882      70.031153119379979      5.0635815537999997
   180   2      1.3966326831591866      129.88683954588004      5.0635815537999997
   181   2      1.3966326831593099      89.983048594879733      5.0635815537999997
   182   2      1.3966326831594353      10.175466692880129      5.0635815537999997
   183   2      1.3966326831594345      30.127362168379939      5.0635815537999997
   184   2      1.3966326831594367      50.079257643879622      5.0635815537999997
   185   2      1.3966326831594258      109.93494407037966      5.0635815537999997
   186   4      1.3966326835993026     0.19951895479992254      5.2105475048000001
   187   2      1.3966326835993026     0.19951895479992254               2.9496935
   188   2      1.3966326835993026     0.19951895479992254      7.0523489108000001
   189   4      1.3966326835993008      20.151414430299887      5.2105475048000001
   190   2      1.3966326835993008      20.151414430299887               2.9496935
   191   2      1.3966326835993008      20.151414430299887      7.0523489108000001
   192   4      1.3966326835993017      99.958996332299975      5.2105475048000001
   193   2      1.3966326835993017      99.958996332299975               2.9496935
   194   2      1.3966326835993017      99.958996332299975      7.0523489108000001
   195   4      1.3966326835992955      119.91089180779986      5.2105475048000001
   196   2      1.3966326835992955      119.91089180779986               2.9496935
   197   2      1.3966326835992955      119.91089180779986      7.0523489108000001
   198   4      1.3966326835995315      40.103309905799691      5.2105475048000001
   199   2      1.3966326835995315      40.103309905799691               2.9496935
   200   2      1.3966326835995315      40.103309905799691      7.0523489108000001
   201   4      1.3966326835995317      60.055205381299615      5.2105475048000001
   202   2      1.3966326835995317      60.055205381299615               2.9496935
   203   2      1.3966326835995317      60.055205381299615      7.0523489108000001
   204   4      1.3966326835995326      80.007100856799553      5.2105475048000001
   205   2      1.3966326835995326      80.007100856799553               2.9496935
   206   2      1.3966326835995326      80.007100856799553      7.0523489108000001
   207   1      1.7956705923390699      57.261940014619839      3.0874183849999999
   208   1      1.7956705923390699      57.261940014619839      7.1900737958000001
   209   1      1.7956705923393221      37.310044539119602      3.0874183849999999
   210   1      1.7956705923393221      37.310044539119602      7.1900737958000001
   211   1      1.7956705923393153      77.213835490119948      3.0874183849999999
   212   1      1.7956705923393153      77.213835490119948      7.1900737958000001
   213   1      1.7956705923393161      97.165730965619886      3.0874183849999999
   214   1      1.7956705923393161      97.165730965619886      7.1900737958000001
   215   1      1.7956705923393199      117.11762644111931      3.0874183849999999
   216   1      1.7956705923393199      117.11762644111931      7.1900737958000001
   217   1      1.7956705923393166      137.06952191661975      3.0874183849999999
   218   1      1.7956705923393166      137.06952191661975      7.1900737958000001
   219   1      1.7956705923395699      17.358149063619667      3.0874183849999999
   220   1      1.7956705923395699      17.358149063619667      7.1900737958000001
   221   2      1.7956705927792507      47.285992276539353      5.0635815537999997
   222   2      1.7956705927794379      7.3822013255394916      5.0635815537999997
   223   2      1.7956705927794354      27.334096801039671      5.0635815537999997
   224   2      1.7956705927794399      67.237887752039654      5.0635815537999997
   225   2      1.7956705927794265      87.189783227539465      5.0635815537999997
   226   2      1.7956705927794283      127.09357417853957      5.0635815537999997
   227   2      1.7956705927795582      107.14167870303964      5.0635815537999997
   228   2      2.1947085021792567      64.444622386239914      5.0635815537999997
   229   2      2.1947085021792541      84.396517861739852      5.0635815537999997
   230   2      2.1947085021793153      124.30030881273971      5.0635815537999997
   231   2      2.1947085021793833      4.5889359597399375      5.0635815537999997
   232   2      2.1947085021793824      24.540831435239944      5.0635815537999997
   233   2      2.1947085021793842      44.492726910739918      5.0635815537999997
   234   2      2.1947085021793771      104.34841333723985      5.0635815537999997
   235   4      2.1947085026192452      114.32436107465954      5.2105475048000001
   236   2      2.1947085026192452      114.32436107465954               2.9496935
   237   2      2.1947085026192452      114.32436107465954      7.0523489108000001
   238   4      2.1947085026194966      14.564883697159631      5.2105475048000001
   239   2      2.1947085026194966      14.564883697159631               2.9496935
   240   2      2.1947085026194966      14.564883697159631      7.0523489108000001
   241   4      2.1947085026194952      34.516779172659561      5.2105475048000001
   242   2      2.1947085026194952      34.516779172659561               2.9496935
   243   2      2.1947085026194952      34.516779172659561      7.0523489108000001
   244   4      2.1947085026195032      54.468674648159741      5.2105475048000001
   245   2      2.1947085026195032      54.468674648159741               2.9496935
   246   2      2.1947085026195032      54.468674648159741      7.0523489108000001
   247   4      2.1947085026195006      74.420570123659672      5.2105475048000001
   248   2      2.1947085026195006      74.420570123659672               2.9496935
   249   2      2.1947085026195006      74.420570123659672      7.0523489108000001
   250   4      2.1947085026194961      94.372465599159852      5.2105475048000001
   251   2      2.1947085026194961      94.372465599159852               2.9496935
   252   2      2.1947085026194961      94.372465599159852      7.0523489108000001
   253   4      2.1947085026194908      134.27625655015984      5.2105475048000001
   254   2      2.1947085026194908      134.27625655015984               2.9496935
   255   2      2.1947085026194908      134.27625655015984      7.0523489108000001
   256   1      2.5937464113592732      51.675409281479773      3.0874183849999999
   257   1      2.5937464113592732      51.675409281479773      7.1900737958000001
   258   1      2.5937464113592652      71.627304756979896      3.0874183849999999
   259   1      2.5937464113592652      71.627304756979896      7.1900737958000001
   260   1      2.5937464113592661      91.579200232480005      3.0874183849999999
   261   1      2.5937464113592661      91.579200232480005      7.1900737958000001
   262   1       2.593746411359267      111.53109570797993      3.0874183849999999
   263   1       2.593746411359267      111.53109570797993      7.1900737958000001
   264   1       2.593746411359279      131.48299118347987      3.0874183849999999
   265   1       2.593746411359279      131.48299118347987      7.1900737958000001
   266   1      2.5937464113593478       11.77161833047929      3.0874183849999999
   267   1      2.5937464113593478       11.77161833047929      7.1900737958000001
   268   1      2.5937464113595192      31.723513805979469      3.0874183849999999
   269   1      2.5937464113595192      31.723513805979469      7.1900737958000001
   270   2      2.5937464117993154      21.747566067899541      5.0635815537999997
   271   2      2.5937464117993234      61.651357018899404      5.0635815537999997
   272   2      2.5937464117993208      81.603252494399328      5.0635815537999997
   273   2      2.5937464117993856       1.795670592399734      5.0635815537999997
   274   2       2.593746411799386      41.699461543399721      5.0635815537999997
   275   2      2.5937464117993856      101.55514796989976      5.0635815537999997
   276   2      2.5937464117993838      121.50704344539945      5.0635815537999997
   277   2      2.8967280658485595      107.66282902317624           13.4298776893
   278   4       2.896731531097096      105.72305307317902      13.808564961699998
   279   2       2.896731531097096      105.72305307317902      11.293897032299999
   280   2       2.896731531097096      105.72305307317902      15.579784652299999
   281   2      2.8967349963456472      103.78327712318229           13.4298776893
   282   4      2.8967384615946785      101.84350117318508      13.808564961699998
   283   2      2.8967384615946785      101.84350117318508      11.293897032299999
   284   2      2.8967384615946785      101.84350117318508      15.579784652299999
   285   2      2.8967419268434687       99.90372522318836           13.4298776893
   286   4      2.8967453920927473      97.963949273191631      13.808564961699998
   287   2      2.8967453920927473      97.963949273191631      11.293897032299999
   288   2      2.8967453920927473      97.963949273191631      15.579784652299999
   289   2       2.896748857340798      96.024173323194162           13.4298776893
   290   4      2.8967523225900811      94.084397373197959      13.808564961699998
   291   2      2.8967523225900811      94.084397373197959      11.293897032299999
   292   2      2.8967523225900811      94.084397373197959      15.579784652299999
   293   2      2.8967557878383778      92.144621423200732           13.4298776893
   294   4      2.8967592530874118      90.204845473203761      13.808564961699998
   295   2      2.8967592530874118      90.204845473203761      11.293897032299999
   296   2      2.8967592530874118      90.204845473203761      15.579784652299999
   297   2      2.8967627183362077      88.265069523207046           13.4298776893
   298   4      2.8967661835849929      86.325293573209578      13.808564961699998
   299   2      2.8967661835849929      86.325293573209578      11.293897032299999
   300   2      2.8967661835849929      86.325293573209578      15.579784652299999
   301   2      2.8967696488337831      84.385517623212863           13.4298776893
   302   4      2.8967731140823267      82.445741673215892      13.808564961699998
   303   2      2.8967731140823267      82.445741673215892      11.293897032299999
   304   2      2.8967731140823267      82.445741673215892      15.579784652299999
   305   2      2.8967765793313625       80.50596572321966           13.4298776893
   306   4      2.8967800445801482      78.566189773222192      13.808564961699998
   307   2      2.8967800445801482      78.566189773222192      11.293897032299999
   308   2      2.8967800445801482      78.566189773222192      15.579784652299999
   309   4      2.8967869750774735      74.686637873228008      13.808564961699998
   310   2      2.8967869750774735      74.686637873228008      11.293897032299999
   311   2      2.8967869750774735      74.686637873228008      15.579784652299999
   312   2      2.8967904403262605      72.746861923232046           13.4298776893
   313   4      2.8967939055748073      70.807085973234578      13.808564961699998
   314   2      2.8967939055748073      70.807085973234578      11.293897032299999
   315   2      2.8967939055748073      70.807085973234578      15.579784652299999
   316   2      2.8967973708240957      68.867310023238346           13.4298776893
   317   4      2.8968008360723854      66.927534073240878      13.808564961699998
   318   2      2.8968008360723854      66.927534073240878      11.293897032299999
   319   2      2.8968008360723854      66.927534073240878      15.579784652299999
   320   2      2.8968043013216742      64.987758123244902           13.4298776893
   321   4      2.8968077665702188      63.047982173247441      13.808564961699998
   322   2      2.8968077665702188      63.047982173247441      11.293897032299999
   323   2      2.8968077665702188      63.047982173247441      15.579784652299999
   324   2      2.8968112318189996      61.108206223250718           13.4298776893
   325   4       2.896814697068038      59.168430273253499      13.808564961699998
   326   2       2.896814697068038      59.168430273253499      11.293897032299999
   327   2       2.896814697068038      59.168430273253499      15.579784652299999
   328   2      2.8968181623168276      57.228654323256784           13.4298776893
   329   4      2.8968216275651208      55.288878373259564      13.808564961699998
   330   2      2.8968216275651208      55.288878373259564      11.293897032299999
   331   2      2.8968216275651208      55.288878373259564      15.579784652299999
   332   2      2.8968250928139105      53.349102423262842           13.4298776893
   333   4      2.8968285580629507      51.409326473265871      13.808564961699998
   334   2      2.8968285580629507      51.409326473265871      11.293897032299999
   335   2      2.8968285580629507      51.409326473265871      15.579784652299999
   336   2      2.8968320233114855      49.469550523269156           13.4298776893
   337   4      2.8968354885607734      47.529774573272185      13.808564961699998
   338   2      2.8968354885607734      47.529774573272185      11.293897032299999
   339   2      2.8968354885607734      47.529774573272185      15.579784652299999
   340   2      2.8968389538093136      45.589998623275221           13.4298776893
   341   4      2.8968424190581001      43.650222673278499      13.808564961699998
   342   2      2.8968424190581001      43.650222673278499      11.293897032299999
   343   2      2.8968424190581001      43.650222673278499      15.579784652299999
   344   2      2.8968458843068907      41.710446723281279           13.4298776893
   345   4      2.8968493495556817      39.770670773284316      13.808564961699998
   346   2      2.8968493495556817      39.770670773284316      11.293897032299999
   347   2      2.8968493495556817      39.770670773284316      15.579784652299999
   348   2      2.8968528148044719      37.830894823287593           13.4298776893
   349   4       2.896856280053508      35.891118873290623      13.808564961699998
   350   2       2.896856280053508      35.891118873290623      11.293897032299999
   351   2       2.896856280053508      35.891118873290623      15.579784652299999
   352   2      2.8968597453020464        33.9513429232939           13.4298776893
   353   4      2.8968632105508383      32.011566973296432      13.808564961699998
   354   2      2.8968632105508383      32.011566973296432      11.293897032299999
   355   2      2.8968632105508383      32.011566973296432      15.579784652299999
   356   4      2.8968701410481681      28.132015073302746      13.808564961699998
   357   2      2.8968701410481681      28.132015073302746      11.293897032299999