(written by ASE)

26866 atoms
4 atom types

0.0      172.32709806257893  xlo xhi
0.0      172.32709806257893  ylo yhi
0.0      63.177851719700001  zlo zhi

Masses

     1       137.3269999646734 # Ba
     2      15.998999995884349 # O
     3      207.19999994669897 # Pb
     4      47.866999987686484 # Ti

Atoms # atomic

     1   2  1.1322847812249844e-05      91.860867092617426           13.4298776893
     2   4  1.3167158334978173e-05      166.67891414395706      13.808564961699998
     3   2  1.3167158334978173e-05      166.67891414395706      11.293897032299999
     4   2  1.3167158334978173e-05      166.67891414395706      15.579784652299999
     5   2  3.7657164864864723e-05      80.564499255373633           13.4298776893
     6   3  0.00012862696459361889      5.6397149594333396           11.8416575997
     7   3  0.00012862696459361889      5.6397149594333396           16.1275452197
     8   4   0.0021363903809180056      16.915785653449174      13.808564961699998
     9   2   0.0021363903809180056      16.915785653449174      11.293897032299999
    10   2   0.0021363903809180056      16.915785653449174      15.579784652299999
    11   2   0.0028698510010154547      103.08612403150181           13.4298776893
    12   1    0.023100147169760353      57.912069013332975      3.0874183849999999
    13   1    0.023100147169760353      57.912069013332975      7.1900737958000001
    14   2    0.023100147577655241      144.07561804499164      5.0635815537999997
    15   3    0.045921773247886759      28.226441154832997           11.8416575997
    16   3    0.045921773247886759      28.226441154832997           16.1275452197
    17   2    0.046655233867984626      114.39677953288579           13.4298776893
    18   2    0.069300441187146247      87.572658010034317      5.0635815537999997
    19   4     0.06930044159484014      1.4091089791140115      5.2105475048000001
    20   2     0.06930044159484014      1.4091089791140115               2.9496935
    21   2     0.06930044159484014      1.4091089791140115      7.0523489108000001
    22   4    0.089707156115473363      39.537096656217741      13.808564961699998
    23   2    0.089707156115473363      39.537096656217741      11.293897032299999
    24   2    0.089707156115473363      39.537096656217741      15.579784652299999
    25   2    0.090582410858202705      125.69896607508169           13.4298776893
    26   1     0.11550073594338173      117.23324700591968      3.0874183849999999
    27   1     0.11550073594338173      117.23324700591968      7.1900737958000001
    28   2     0.11550073635113411      31.069697974999706      5.0635815537999997
    29   3     0.13349253898243907       50.84775215760142           11.8416575997
    30   3     0.13349253898243907       50.84775215760142           16.1275452197
    31   2     0.13408420547992081      137.02655949484284           13.4298776893
    32   2     0.16170102996103644       146.8938360026215      5.0635815537999997
    33   4     0.16170103036862749      60.730286971700778      5.2105475048000001
    34   2     0.16170103036862749      60.730286971700778               2.9496935
    35   2     0.16170103036862749      60.730286971700778      7.0523489108000001
    36   4     0.17727792185002653      62.158407658986164      13.808564961699998
    37   2     0.17727792185002653      62.158407658986164      11.293897032299999
    38   2     0.17727792185002653      62.158407658986164      15.579784652299999
    39   2     0.17786958834810607      148.33721499622706           13.4298776893
    40   1     0.20790132471671599      4.2273269359282448      3.0874183849999999
    41   1     0.20790132471671599      4.2273269359282448      7.1900737958000001
    42   2     0.20790132512476742      90.390875967587661      5.0635815537999997
    43   3     0.22106330471760977      73.469063160370141           11.8416575997
    44   3     0.22106330471760977      73.469063160370141           16.1275452197
    45   2     0.22165497121506686      159.64787049761125           13.4298776893
    46   2     0.25410161873451004      33.887915932629582      5.0635815537999997
    47   4     0.25410161914194662      120.05146496428846      5.2105475048000001
    48   2     0.25410161914194662      120.05146496428846               2.9496935
    49   2     0.25410161914194662      120.05146496428846      7.0523489108000001
    50   4     0.26470689346257076      84.788187620943333      13.808564961699998
    51   2     0.26470689346257076      84.788187620943333      11.293897032299999
    52   2     0.26470689346257076      84.788187620943333      15.579784652299999
    53   2     0.26544035408205718      170.95852599899581           13.4298776893
    54   1     0.30030191349034802      63.548504928516202      3.0874183849999999
    55   1     0.30030191349034802      63.548504928516202      7.1900737958000001
    56   2     0.30030191389793759      149.71205396017544      5.0635815537999997
    57   3     0.30849227632954829      96.098843122327082           11.8416575997
    58   3     0.30849227632954829      96.098843122327082           16.1275452197
    59   2     0.30922573694964189      9.9420834378007257           13.4298776893
    60   2     0.34650220750798094      93.209093925217545      5.0635815537999997
    61   4     0.34650220791527331       7.045544894297004      5.2105475048000001
    62   2     0.34650220791527331       7.045544894297004               2.9496935
    63   2     0.34650220791527331       7.045544894297004      7.0523489108000001
    64   2     0.35154419857701896      21.239160245658894           13.4298776893
    65   4     0.35241945331974889      107.40102966452238      13.808564961699998
    66   2     0.35241945331974889      107.40102966452238      11.293897032299999
    67   2     0.35241945331974889      107.40102966452238      15.579784652299999
    68   1     0.39270250226398379      122.86968292110316      3.0874183849999999
    69   1     0.39270250226398379      122.86968292110316      7.1900737958000001
    70   2      0.3927025026717253      36.706133890183231      5.0635815537999997
    71   2     0.39532958144337804      32.549815747042878           13.4298776893
    72   3      0.3960630420646909      118.72015412509549           11.8416575997
    73   3      0.3960630420646909      118.72015412509549           16.1275452197
    74   2     0.43890279628135404      152.53027191780532      5.0635815537999997
    75   4     0.43890279668882959      66.366722886885029      5.2105475048000001
    76   2     0.43890279668882959      66.366722886885029               2.9496935
    77   2     0.43890279668882959      66.366722886885029      7.0523489108000001
    78   2     0.43911496431096303      43.860471248427011           13.4298776893
    79   4     0.43984842493167275      130.03080962647971      13.808564961699998
    80   2     0.43984842493167275      130.03080962647971      11.293897032299999
    81   2     0.43984842493167275      130.03080962647971      15.579784652299999
    82   2     0.48290034717915581      55.171126749811449           13.4298776893
    83   3     0.48349201367602485      141.34993408705233           11.8416575997
    84   3     0.48349201367602485      141.34993408705233           16.1275452197
    85   1     0.48510309103730304      9.8637628511118507      3.0874183849999999
    86   1     0.48510309103730304      9.8637628511118507      7.1900737958000001
    87   2      0.4851030914450507      96.027311882771016      5.0635815537999997
    88   2     0.52668573004612929      66.481782251195895           13.4298776893
    89   4     0.52727739654421379      152.66058958843655      13.808564961699998
    90   2     0.52727739654421379      152.66058958843655      11.293897032299999
    91   2     0.52727739654421379      152.66058958843655      15.579784652299999
    92   2     0.53130338505510122      39.524351847813108      5.0635815537999997
    93   4     0.53130338546245137      125.68790087947282      5.2105475048000001
    94   2     0.53130338546245137      125.68790087947282               2.9496935
    95   2     0.53130338546245137      125.68790087947282      7.0523489108000001
    96   2     0.57032931879109039      77.800906711768462           13.4298776893
    97   3     0.57106277941118511      163.97124508982077           11.8416575997
    98   3     0.57106277941118511      163.97124508982077           16.1275452197
    99   1     0.57750367981081741      69.184940843700033      3.0874183849999999
   100   1     0.57750367981081741      69.184940843700033      7.1900737958000001
   101   2     0.57750368021861886      155.34848987535867      5.0635815537999997
   102   2     0.61411470165805648      89.111562213152666           13.4298776893
   103   4     0.61498995640200826      2.9463335694377584      13.808564961699998
   104   2     0.61498995640200826      2.9463335694377584      11.293897032299999
   105   2     0.61498995640200826      2.9463335694377584      15.579784652299999
   106   2     0.62370397382830567      98.845529840401369      5.0635815537999997
   107   4     0.62370397423582202      12.681980809481679      5.2105475048000001
   108   2     0.62370397423582202      12.681980809481679               2.9496935
   109   2     0.62370397423582202      12.681980809481679      7.0523489108000001
   110   2     0.65790008452564708      100.42221771453688           13.4298776893
   111   3     0.65863354514635575      14.265458030010564           11.8416575997
   112   3     0.65863354514635575      14.265458030010564           16.1275452197
   113   1     0.66990426858442353      128.50611883628721      3.0874183849999999
   114   1     0.66990426858442353      128.50611883628721      7.1900737958000001
   115   2      0.6699042689919068      42.342569805367525      5.0635815537999997
   116   4     0.70095200677250724      25.562534837868316      13.808564961699998
   117   2     0.70095200677250724      25.562534837868316      11.293897032299999
   118   2     0.70095200677250724      25.562534837868316      15.579784652299999
   119   2     0.70168546739260973      111.73287321592078           13.4298776893
   120   2     0.71610456260206468      158.16670783298778      5.0635815537999997
   121   4     0.71610456300964664      72.003158802068256      5.2105475048000001
   122   2     0.71610456300964664      72.003158802068256               2.9496935
   123   2     0.71610456300964664      72.003158802068256      7.0523489108000001
   124   3     0.74473738963947811      36.873190339252602           11.8416575997
   125   3     0.74473738963947811      36.873190339252602           16.1275452197
   126   2     0.74547085026019244      123.04352871730484           13.4298776893
   127   1     0.76230485735788989      15.500198766295322      3.0874183849999999
   128   1     0.76230485735788989      15.500198766295322      7.1900737958000001
   129   2     0.76230485776556334      101.66374779795471      5.0635815537999997
   130   4     0.78852277250645164      48.183845840636735      13.808564961699998
   131   2     0.78852277250645164      48.183845840636735      11.293897032299999
   132   2     0.78852277250645164      48.183845840636735      15.579784652299999
   133   2      0.7892562331277716      134.35418421868951           13.4298776893
   134   2     0.80850515137507106      45.160787762997401      5.0635815537999997
   135   4     0.80850515178304438      131.32433679465666      5.2105475048000001
   136   2     0.80850515178304438      131.32433679465666               2.9496935
   137   2     0.80850515178304438      131.32433679465666      7.0523489108000001
   138   3     0.83230815537464009      59.494501342021017           11.8416575997
   139   3     0.83230815537464009      59.494501342021017           16.1275452197
   140   2     0.83289982187274803      145.67330867926219           13.4298776893
   141   1     0.85470544613151622      74.821376758883247      3.0874183849999999
   142   1     0.85470544613151622      74.821376758883247      7.1900737958000001
   143   2     0.85470544653910219      160.98492579054252      5.0635815537999997
   144   4     0.87609353824223124      70.805156843405456      13.808564961699998
   145   2     0.87609353824223124      70.805156843405456      11.293897032299999
   146   2     0.87609353824223124      70.805156843405456      15.579784652299999
   147   2     0.87682699886233706      156.97549522145823           13.4298776893
   148   2     0.90090574014901348      104.48196575558428      5.0635815537999997
   149   4     0.90090574055652306      18.318416724664903      5.2105475048000001
   150   2     0.90090574055652306      18.318416724664903               2.9496935
   151   2     0.90090574055652306      18.318416724664903      7.0523489108000001
   152   3     0.91973712698657384      82.124281303978179           11.8416575997
   153   3     0.91973712698657384      82.124281303978179           16.1275452197
   154   2       0.920470587606668      168.29461968203026           13.4298776893
   155   1     0.94710603490511514      134.14255475147104      3.0874183849999999
   156   1     0.94710603490511514      134.14255475147104      7.1900737958000001
   157   2     0.94710603531282012      47.979005720550745      5.0635815537999997
   158   4     0.96352250985415921      93.434936805362398      13.808564961699998
   159   2     0.96352250985415921      93.434936805362398      11.293897032299999
   160   2     0.96352250985415921      93.434936805362398      15.579784652299999
   161   2     0.96425597047426215      7.2781771208361912           13.4298776893
   162   2     0.99330632892222237      163.80314374817237      5.0635815537999997
   163   4     0.99330632933013718      77.639594717252095      5.2105475048000001
   164   2     0.99330632933013718      77.639594717252095               2.9496935
   165   2     0.99330632933013718      77.639594717252095      7.0523489108000001
   166   2       1.006574432101027      18.575253928693442           13.4298776893
   167   3      1.0073078927211381      104.74559230674622           11.8416575997
   168   3      1.0073078927211381      104.74559230674622           16.1275452197
   169   1      1.0395066236783996      21.136634681479901      3.0874183849999999
   170   1      1.0395066236783996      21.136634681479901      7.1900737958000001
   171   2      1.0395066240860997      107.30018371313855      5.0635815537999997
   172   2      1.0503598149679978      29.885909430078037           13.4298776893
   173   4      1.0510932755893287      116.05624780813073      13.808564961699998
   174   2      1.0510932755893287      116.05624780813073      11.293897032299999
   175   2      1.0510932755893287      116.05624780813073      15.579784652299999
   176   2      1.0857069176958114      50.797223678180622      5.0635815537999997
   177   4      1.0857069181034855      136.96077270983989      5.2105475048000001
   178   2      1.0857069181034855      136.96077270983989               2.9496935
   179   2      1.0857069181034855      136.96077270983989      7.0523489108000001
   180   2      1.0941451978355792       41.19656493146217           13.4298776893
   181   3      1.0948786584563017      127.36690330951465           11.8416575997
   182   3      1.0948786584563017      127.36690330951465           16.1275452197
   183   1      1.1319072124518057      80.457812674066787      3.0874183849999999
   184   1      1.1319072124518057      80.457812674066787      7.1900737958000001
   185   2      1.1319072128595502      166.62136170572521      5.0635815537999997
   186   2      1.1379305807031685      52.507220432846452           13.4298776893
   187   4       1.138522247200642      138.68602777008746      13.808564961699998
   188   2       1.138522247200642      138.68602777008746      11.293897032299999
   189   2       1.138522247200642      138.68602777008746      15.579784652299999
   190   2      1.1781075064692843      110.11840167076765      5.0635815537999997
   191   4      1.1781075068769564      23.954852639848124      5.2105475048000001
   192   2      1.1781075068769564      23.954852639848124               2.9496935
   193   2      1.1781075068769564      23.954852639848124      7.0523489108000001
   194   2       1.181715963570142      63.817875934230585           13.4298776893
   195   3       1.182307630068226      149.99668327147134           11.8416575997
   196   3       1.182307630068226      149.99668327147134           16.1275452197
   197   1       1.224307801225581      139.77899066665427      3.0874183849999999
   198   1       1.224307801225581      139.77899066665427      7.1900737958000001
   199   2      1.2243078016330653      53.615441635734584      5.0635815537999997
   200   2      1.2255013464377216      75.128531435614875           13.4298776893
   201   4      1.2260930129358043      161.30733877285553      13.808564961699998
   202   2      1.2260930129358043      161.30733877285553      11.293897032299999
   203   2      1.2260930129358043      161.30733877285553      15.579784652299999
   204   2      1.2691449351826829      86.447655896187456           13.4298776893
   205   3      1.2698783958027808       0.290896211661131           11.8416575997
   206   3      1.2698783958027808       0.290896211661131           16.1275452197
   207   2      1.2705080952429599      169.43957966335563      5.0635815537999997
   208   4      1.2705080956502872      83.276030632435919      5.2105475048000001
   209   2      1.2705080956502872      83.276030632435919               2.9496935
   210   2      1.2705080956502872      83.276030632435919      7.0523489108000001
   211   2      1.3129303180502607      97.758311397572044           13.4298776893
   212   4      1.3136637786709768      11.601551713044996      13.808564961699998
   213   2      1.3136637786709768      11.601551713044996      11.293897032299999
   214   2      1.3136637786709768      11.601551713044996      15.579784652299999
   215   1      1.3167083899990604      26.773070596662432      3.0874183849999999
   216   1      1.3167083899990604      26.773070596662432      7.1900737958000001
   217   2      1.3167083904066361      112.93661962832178      5.0635815537999997
   218   3      1.3559822402965138      22.898628520903472           11.8416575997
   219   3      1.3559822402965138      22.898628520903472           16.1275452197
   220   2      1.3567157009166115      109.06896689895557           13.4298776893
   221   2       1.362908684016551      56.433659593363544      5.0635815537999997
   222   4      1.3629086844240572      142.59720862502311      5.2105475048000001
   223   2      1.3629086844240572      142.59720862502311               2.9496935
   224   2      1.3629086844240572      142.59720862502311      7.0523489108000001
   225   4      1.3997676231641032      34.209284022287456      13.808564961699998
   226   2      1.3997676231641032      34.209284022287456      11.293897032299999
   227   2      1.3997676231641032      34.209284022287456      15.579784652299999
   228   2      1.4005010837848197      120.37962240034008           13.4298776893
   229   1      1.4091089787725433      86.094248589250299      3.0874183849999999
   230   1      1.4091089787725433      86.094248589250299      7.1900737958000001
   231   2      1.4091089791801372      172.25779762090883      5.0635815537999997
   232   3      1.4435530060310706      45.519939523671589           11.8416575997
   233   3      1.4435530060310706      45.519939523671589           16.1275452197
   234   2      1.4442864666517838       131.6902779017243           13.4298776893
   235   2      1.4553092727898789      115.75483758595122      5.0635815537999997
   236   4      1.4553092731975059      29.591288555031955      5.2105475048000001
   237   2      1.4553092731975059      29.591288555031955               2.9496935
   238   2      1.4553092731975059      29.591288555031955      7.0523489108000001
   239   4      1.4873383888992666      56.830595025056631      13.808564961699998
   240   2      1.4873383888992666      56.830595025056631      11.293897032299999
   241   2      1.4873383888992666      56.830595025056631      15.579784652299999
   242   2      1.4879300553967498      143.00940236229695           13.4298776893
   243   1      1.5015095675459162      145.41542658183872      3.0874183849999999
   244   1      1.5015095675459162      145.41542658183872      7.1900737958000001
   245   2      1.5015095679534582      59.251877550917342      5.0635815537999997
   246   3      1.5311237717662403      68.141250526440459           11.8416575997
   247   3      1.5311237717662403      68.141250526440459           16.1275452197
   248   2      1.5317154382643281      154.32005786368117           13.4298776893
   249   2      1.5477098615632008      2.7489175159597692      5.0635815537999997
   250   4      1.5477098619709482       88.91246654761899      5.2105475048000001
   251   2      1.5477098619709482       88.91246654761899               2.9496935
   252   2      1.5477098619709482       88.91246654761899      7.0523489108000001
   253   4      1.5747673605118098      79.460374987013125      13.808564961699998
   254   2      1.5747673605118098      79.460374987013125      11.293897032299999
   255   2      1.5747673605118098      79.460374987013125      15.579784652299999
   256   2      1.5755008211312993      165.63071336506539           13.4298776893
   257   1      1.5939101563194957      32.409506511846345      3.0874183849999999
   258   1      1.5939101563194957      32.409506511846345      7.1900737958000001
   259   2       1.593910156727169      118.57305554350559      5.0635815537999997
   260   3      1.6185527433781715      90.771030488397173           11.8416575997
   261   3      1.6185527433781715      90.771030488397173           16.1275452197
   262   2      1.6192862039988831      4.6142708038706246           13.4298776893
   263   2      1.6401104503369848      62.070095508547674      5.0635815537999997
   264   4      1.6401104507444597      148.23364454020694      5.2105475048000001
   265   2      1.6401104507444597      148.23364454020694               2.9496935
   266   2      1.6401104507444597      148.23364454020694      7.0523489108000001
   267   4      1.6623381262457471      102.08168598978153      13.808564961699998
   268   2      1.6623381262457471      102.08168598978153      11.293897032299999
   269   2      1.6623381262457471      102.08168598978153      15.579784652299999
   270   2      1.6630715868664663      15.924926305255179           13.4298776893
   271   1       1.686310745092982      91.730684504433682      3.0874183849999999
   272   1       1.686310745092982      91.730684504433682      7.1900737958000001
   273   2      1.6863107455005657      5.5671354735138427      5.0635815537999997
   274   2      1.7053900484926185      27.222003113112425           13.4298776893
   275   3      1.7061235091127251       113.3923414911652           11.8416575997
   276   3      1.7061235091127251       113.3923414911652           16.1275452197
   277   2      1.7325110391103173      121.39127350113549      5.0635815537999997
   278   4       1.732511039518208      35.227724470214376      5.2105475048000001
   279   2       1.732511039518208      35.227724470214376               2.9496935
   280   2       1.732511039518208      35.227724470214376      7.0523489108000001
   281   2      1.7491754313595855      38.532658614497478           13.4298776893
   282   4      1.7499088919809225       124.7029969925498      13.808564961699998
   283   2      1.7499088919809225       124.7029969925498      11.293897032299999
   284   2      1.7499088919809225       124.7029969925498      15.579784652299999
   285   1      1.7787113338665994      151.05186249702101      3.0874183849999999
   286   1      1.7787113338665994      151.05186249702101      7.1900737958000001
   287   2      1.7787113342740468      64.888313466100996      5.0635815537999997
   288   2      1.7929608142277831      49.843314115881149           13.4298776893
   289   3       1.793694274847889      136.01365249393362           11.8416575997
   290   3       1.793694274847889      136.01365249393362           16.1275452197
   291   2       1.824911627883788      8.3853534311435638      5.0635815537999997
   292   4      1.8249116282914641      94.548902462802971      5.2105475048000001
   293   2      1.8249116282914641      94.548902462802971               2.9496935
   294   2      1.8249116282914641      94.548902462802971      7.0523489108000001
   295   2      1.8367461970947563      61.153969617265894           13.4298776893
   296   4      1.8373378635928412      147.33277695450681      13.808564961699998
   297   2      1.8373378635928412      147.33277695450681      11.293897032299999
   298   2      1.8373378635928412      147.33277695450681      15.579784652299999
   299   1      1.8711119226399271      38.045942427029871      3.0874183849999999
   300   1      1.8711119226399271      38.045942427029871      7.1900737958000001
   301   2      1.8711119230473645      124.20949145868859      5.0635815537999997
   302   2       1.880531579962343       72.46462511865019           13.4298776893
   303   3      1.8811232464598251      158.64343245589066           11.8416575997
   304   3      1.8811232464598251      158.64343245589066           16.1275452197
   305   2      1.9173122166574947      67.706531423731519      5.0635815537999997
   306   4      1.9173122170648582      153.87008045538965      5.2105475048000001
   307   2      1.9173122170648582      153.87008045538965               2.9496935
   308   2      1.9173122170648582      153.87008045538965      7.0523489108000001
   309   2      1.9241751687072948      83.783749579223155           13.4298776893
   310   4      1.9249086293274156      169.95408795727522      13.808564961699998
   311   2      1.9249086293274156      169.95408795727522      11.293897032299999
   312   2      1.9249086293274156      169.95408795727522      15.579784652299999
   313   1       1.963512511413567      97.367120419616739      3.0874183849999999
   314   1       1.963512511413567      97.367120419616739      7.1900737958000001
   315   2      1.9635125118210757      11.203571388697677      5.0635815537999997
   316   2      1.9679605515742684      95.094405080606975           13.4298776893
   317   3      1.9686940121949845      8.9376453960804625           11.8416575997
   318   3      1.9686940121949845      8.9376453960804625           16.1275452197
   319   2      2.0097128054308926       127.0277094163187      5.0635815537999997
   320   4      2.0097128058382561      40.864160385399011      5.2105475048000001
   321   2      2.0097128058382561      40.864160385399011               2.9496935
   322   2      2.0097128058382561      40.864160385399011      7.0523489108000001
   323   4      2.0110124738217485      20.234722203938478      13.808564961699998
   324   2      2.0110124738217485      20.234722203938478      11.293897032299999
   325   2      2.0110124738217485      20.234722203938478      15.579784652299999
   326   2      2.0117459344412398      106.40506058199119           13.4298776893
   327   3      2.0547978566881095      31.545377705322611           11.8416575997
   328   3      2.0547978566881095      31.545377705322611           16.1275452197
   329   2      2.0555313173094438      117.71571608337524           13.4298776893
   330   1      2.0559131001868876      156.68829841220449      3.0874183849999999
   331   1      2.0559131001868876      156.68829841220449      7.1900737958000001
   332   2      2.0559131005946347      70.524749381284479      5.0635815537999997
   333   4      2.0985832395550772      42.856033206706897      13.808564961699998
   334   2      2.0985832395550772      42.856033206706897      11.293897032299999
   335   2      2.0985832395550772      42.856033206706897      15.579784652299999
   336   2      2.0993167001764106       129.0263715847596           13.4298776893
   337   2      2.1021133942044701      14.021789346327553      5.0635815537999997
   338   4      2.1021133946119721      100.18533837798681      5.2105475048000001
   339   2      2.1021133946119721      100.18533837798681               2.9496935
   340   2      2.1021133946119721      100.18533837798681      7.0523489108000001
   341   3      2.1423686224232759       54.16668870809103           11.8416575997
   342   3      2.1423686224232759       54.16668870809103           16.1275452197
   343   2      2.1429602889213526      140.34549604533208           13.4298776893
   344   1      2.1483136889604406      43.682378342214015      3.0874183849999999
   345   1      2.1483136889604406      43.682378342214015      7.1900737958000001
   346   2      2.1483136893679569      129.84592737387197      5.0635815537999997
   347   4       2.186154005290859      65.477344209475618      13.808564961699998
   348   2       2.186154005290859      65.477344209475618      11.293897032299999
   349   2       2.186154005290859      65.477344209475618      15.579784652299999
   350   2      2.1867456717883402      151.65615154671596           13.4298776893
   351   2      2.1945139829780085      73.342967338914747      5.0635815537999997
   352   4      2.1945139833854452      159.50651637057325      5.2105475048000001
   353   2      2.1945139833854452      159.50651637057325               2.9496935
   354   2      2.1945139833854452      159.50651637057325      7.0523489108000001
   355   3      2.2299393881578329      76.787999710859452           11.8416575997
   356   3      2.2299393881578329      76.787999710859452           16.1275452197
   357   2      2.2305310546559203      162.96680704810049           13.4298776893