(written by ASE)

26866 atoms
4 atom types

0.0      172.32709806257893  xlo xhi
0.0      172.32709806257893  ylo yhi
0.0      63.177851719700001  zlo zhi

Masses

     1       137.3269999646734 # Ba
     2      15.998999995884349 # O
     3      207.19999994669897 # Pb
     4      47.866999987686484 # Ti

Atoms # atomic

     1   2  1.3061275354483127e-05      91.868368663105542           13.4298776893
     2   3   2.938130689753587e-05      5.6615574069965247           11.8416575997
     3   3   2.938130689753587e-05      5.6615574069965247           16.1275452197
     4   3  7.4927674771833064e-05      155.33410931896307           11.8416575997
     5   3  7.4927674771833064e-05      155.33410931896307           16.1275452197
     6   4  8.8143920539105527e-05      16.984672220989342      13.808564961699998
     7   2  8.8143920539105527e-05      16.984672220989342      11.293897032299999
     8   2  8.8143920539105527e-05      16.984672220989342      15.579784652299999
     9   4  0.00010105022547858481      166.74374858259554      13.808564961699998
    10   2  0.00010105022547858481      166.74374858259554      11.293897032299999
    11   2  0.00010105022547858481      166.74374858259554      15.579784652299999
    12   2  0.00011737025624364674      80.536937326485756           13.4298776893
    13   2  0.00038475083306341448      69.197189467239284           13.4298776893
    14   2  0.00088718186414631973      103.14990086396369           13.4298776893
    15   2    0.023100147102618113      114.41502904917189      5.0635815537999997
    16   4     0.02310014751046301      28.251480017513092      5.2105475048000001
    17   2     0.02310014751046301      28.251480017513092               2.9496935
    18   2     0.02310014751046301      28.251480017513092      7.0523489108000001
    19   2    0.029580878918762547       114.4552737716001           13.4298776893
    20   3    0.030379916861763414      28.293404351995342           11.8416575997
    21   3    0.030379916861763414      28.293404351995342           16.1275452197
    22   1    0.069300441119870063      84.754440052470557      3.0874183849999999
    23   1    0.069300441119870063      84.754440052470557      7.1900737958000001
    24   2     0.06930044152736152      170.91798908339024      5.0635815537999997
    25   2      0.1155007358760415      55.093851056584874      5.0635815537999997
    26   4      0.1155007362837959        141.257400087505      5.2105475048000001
    27   2      0.1155007362837959        141.257400087505               2.9496935
    28   2      0.1155007362837959        141.257400087505      7.0523489108000001
    29   2     0.11671206857103504      137.07658647176791           13.4298776893
    30   4     0.11683269758432345      39.538343879038848      13.808564961699998
    31   2     0.11683269758432345      39.538343879038848      11.293897032299999
    32   2     0.11683269758432345      39.538343879038848      15.579784652299999
    33   3      0.1175111065146406      50.914717052163468           11.8416575997
    34   3      0.1175111065146406      50.914717052163468           16.1275452197
    35   2     0.11763173552877756       125.7035725220138           13.4298776893
    36   4     0.16107670134138563       62.22537340224784      13.808564961699998
    37   2     0.16107670134138563       62.22537340224784      11.293897032299999
    38   2     0.16107670134138563       62.22537340224784      15.579784652299999
    39   1     0.16170102989353272      25.433262059883656      3.0874183849999999
    40   1     0.16170102989353272      25.433262059883656      7.1900737958000001
    41   2     0.16170103030116212      111.59681109080306      5.0635815537999997
    42   2     0.16187573928500476      148.39060204522187           13.4298776893
    43   3      0.2046422961675167      73.536029752331302           11.8416575997
    44   3      0.2046422961675167      73.536029752331302           16.1275452197
    45   2     0.20544133411174634      159.70125839530596           13.4298776893
    46   2     0.20790132464940309      168.09977112657586      5.0635815537999997
    47   4     0.20790132505734973      81.936222094916602      5.2105475048000001
    48   2     0.20790132505734973      81.936222094916602               2.9496935
    49   2     0.20790132505734973      81.936222094916602      7.0523489108000001
    50   4     0.24820789099426538      84.846686102415362      13.808564961699998
    51   2     0.24820789099426538      84.846686102415362      11.293897032299999
    52   2     0.24820789099426538      84.846686102415362      15.579784652299999
    53   2     0.24900692893787374       171.0119147453897           13.4298776893
    54   1      0.2541016186670495      138.43918212987452      3.0874183849999999
    55   1      0.2541016186670495      138.43918212987452      7.1900737958000001
    56   2     0.25410161907475959      52.275633098215877      5.0635815537999997
    57   3     0.29177348582039164       96.15734245249881           11.8416575997
    58   3     0.29177348582039164       96.15734245249881           16.1275452197
    59   2     0.29257252376339871      9.9954730328942158           13.4298776893
    60   2     0.30030191342319673      108.77859313398805      5.0635815537999997
    61   4       0.300301913830886       22.61504410232941      5.2105475048000001
    62   2       0.300301913830886       22.61504410232941               2.9496935
    63   2       0.300301913830886       22.61504410232941      7.0523489108000001
    64   1     0.34650220744048676      79.118004137286718      3.0874183849999999
    65   1     0.34650220744048676      79.118004137286718      7.1900737958000001
    66   2     0.34650220784809205      165.28155316820704      5.0635815537999997
    67   4     0.37646511905974234      107.40723927879959      13.808564961699998
    68   2     0.37646511905974234      107.40723927879959      11.293897032299999
    69   2     0.37646511905974234      107.40723927879959      15.579784652299999
    70   2     0.37726415700350702      21.245369859195296           13.4298776893
    71   3     0.37890467547265705      118.77865515266663           11.8416575997
    72   3     0.37890467547265705      118.77865515266663           16.1275452197
    73   2     0.37970371341627868      32.616785733062038           13.4298776893
    74   2     0.39270250219674901      49.457415141400872      5.0635815537999997
    75   4     0.39270250260425593      135.62096417232056      5.2105475048000001
    76   2     0.39270250260425593      135.62096417232056               2.9496935
    77   2     0.39270250260425593      135.62096417232056      7.0523489108000001
    78   4     0.42247027029879747      130.08931150275072      13.808564961699998
    79   2     0.42247027029879747      130.08931150275072      11.293897032299999
    80   2     0.42247027029879747      130.08931150275072      15.579784652299999
    81   2     0.42326930824240883      43.927442083146566           13.4298776893
    82   1      0.4389027962140129      19.796826144699537      3.0874183849999999
    83   1      0.4389027962140129      19.796826144699537      7.1900737958000001
    84   2     0.43890279662186421      105.96037517561984      5.0635815537999997
    85   2     0.46683490306854342      55.238098433230014           13.4298776893
    86   3     0.46763394101276551      141.40332707620422           11.8416575997
    87   3     0.46763394101276551      141.40332707620422           16.1275452197
    88   2     0.48510309097035226      162.46333521139263      5.0635815537999997
    89   4     0.48510309137765972      76.299786179733374      5.2105475048000001
    90   2     0.48510309137765972      76.299786179733374               2.9496935
    91   2     0.48510309137765972      76.299786179733374      7.0523489108000001
    92   2     0.51040049789468134      66.548754783314379           13.4298776893
    93   4     0.51119953583889921      152.71398342628842      13.808564961699998
    94   2     0.51119953583889921      152.71398342628842      11.293897032299999
    95   2     0.51119953583889921      152.71398342628842      15.579784652299999
    96   1     0.53130338498744412      132.80274621469169      3.0874183849999999
    97   1     0.53130338498744412      132.80274621469169      7.1900737958000001
    98   2     0.53130338539518951      46.639197183032309      5.0635815537999997
    99   2     0.55396609272203556      77.859411133397685           13.4298776893
   100   3     0.55476513066504674      164.02463977637248           11.8416575997
   101   3     0.55476513066504674      164.02463977637248           16.1275452197
   102   2     0.57750367974374439      103.14215721880484      5.0635815537999997
   103   4     0.57750368015104103      16.978608187145579      5.2105475048000001
   104   2     0.57750368015104103      16.978608187145579               2.9496935
   105   2     0.57750368015104103      16.978608187145579      7.0523489108000001
   106   1     0.62370397376098208      73.481568222103505      3.0874183849999999
   107   1     0.62370397376098208      73.481568222103505      7.1900737958000001
   108   2     0.62370397416880896      159.64511725302395      5.0635815537999997
   109   4     0.63609754053478307      2.9490366159810821      13.808564961699998
   110   2     0.63609754053478307      2.9490366159810821      11.293897032299999
   111   2     0.63609754053478307      2.9490366159810821      15.579784652299999
   112   2     0.63689657847823522      89.114265258955427           13.4298776893
   113   2     0.64109728237369212      100.48072383356535           13.4298776893
   114   3     0.64189632031730037      14.318854413960604           11.8416575997
   115   3     0.64189632031730037      14.318854413960604           16.1275452197
   116   2     0.66990426851721574      43.820979226217624      5.0635815537999997
   117   4     0.66990426892496269      129.98452825713733      5.2105475048000001
   118   2     0.66990426892496269      129.98452825713733               2.9496935
   119   2     0.66990426892496269      129.98452825713733      7.0523489108000001
   120   2     0.68466287720043362      111.79138018364942           13.4298776893
   121   4     0.68546191514343269      25.629510764044824      13.808564961699998
   122   2     0.68546191514343269      25.629510764044824      11.293897032299999
   123   2     0.68546191514343269      25.629510764044824      15.579784652299999
   124   1     0.71610456253455534      14.160390229515702      3.0874183849999999
   125   1     0.71610456253455534      14.160390229515702      7.1900737958000001
   126   2      0.7161045629422812      100.32393926043599      5.0635815537999997
   127   2     0.72822847202657526      123.10203653373317           13.4298776893
   128   3     0.72902750996956955      36.940167114128577           11.8416575997
   129   3     0.72902750996956955      36.940167114128577           16.1275452197
   130   2     0.76230485729058406      156.82689929620818      5.0635815537999997
   131   4     0.76230485769829537      70.663350264549535      5.2105475048000001
   132   2     0.76230485769829537      70.663350264549535               2.9496935
   133   2     0.76230485769829537      70.663350264549535      7.0523489108000001
   134   2     0.77179406685269725      134.41269288381739           13.4298776893
   135   4     0.77259310479631338      48.250823464213255      13.808564961699998
   136   2     0.77259310479631338      48.250823464213255      11.293897032299999
   137   2     0.77259310479631338      48.250823464213255      15.579784652299999
   138   1     0.80850515130803047      127.16631029950801      3.0874183849999999
   139   1     0.80850515130803047      127.16631029950801      7.1900737958000001
   140   2     0.80850515171564363      41.002761267848207      5.0635815537999997
   141   3     0.81615869962244436      59.561479814297009           11.8416575997
   142   3     0.81615869962244436      59.561479814297009           16.1275452197
   143   2     0.81695773756667056      145.72670845727106           13.4298776893
   144   2     0.85470544606440357      97.505721303621627      5.0635815537999997
   145   4     0.85470544647176605      11.342172271962356      5.2105475048000001
   146   2     0.85470544647176605      11.342172271962356               2.9496935
   147   2     0.85470544647176605      11.342172271962356      7.0523489108000001
   148   4     0.89572996200981991      70.817932015741832      13.808564961699998
   149   2     0.89572996200981991      70.817932015741832      11.293897032299999
   150   2     0.89572996200981991      70.817932015741832      15.579784652299999
   151   2     0.89829014743611124       156.9782033594592           13.4298776893
   152   1     0.90090574008175306      67.845132306920277      3.0874183849999999
   153   1     0.90090574008175306      67.845132306920277      7.1900737958000001
   154   2     0.90090574048905203      154.00868133783996      5.0635815537999997
   155   3     0.90328988927470633      82.182792514464225           11.8416575997
   156   3     0.90328988927470633      82.182792514464225           16.1275452197
   157   2     0.90408892721893597      168.34802115743889           13.4298776893
   158   4     0.94685548410207576      93.493448864548455      13.808564961699998
   159   2     0.94685548410207576      93.493448864548455      11.293897032299999
   160   2     0.94685548410207576      93.493448864548455      15.579784652299999
   161   2      0.9471060348374869      38.184543311033202      5.0635815537999997
   162   4     0.94710603524538217       124.3480923419535      5.2105475048000001
   163   2     0.94710603524538217       124.3480923419535               2.9496935
   164   2     0.94710603524538217       124.3480923419535      7.0523489108000001
   165   2     0.94765452204445766      7.3315794449436931           13.4298776893
   166   3     0.99042107892759246      104.80410521463222           11.8416575997
   167   3     0.99042107892759246      104.80410521463222           16.1275452197
   168   2     0.99122011687120348      18.642235795027453           13.4298776893
   169   1     0.99330632885493286      8.5239543143324799      3.0874183849999999
   170   1     0.99330632885493286      8.5239543143324799      7.1900737958000001
   171   2     0.99330632926266027      94.687503345252168      5.0635815537999997
   172   4       1.033986673753734      116.11476156471596      13.808564961699998
   173   2       1.033986673753734      116.11476156471596      11.293897032299999
   174   2       1.033986673753734      116.11476156471596      15.579784652299999
   175   2      1.0347857116973371      29.952892145111822           13.4298776893
   176   2      1.0395066236112835      151.19046338102558      5.0635815537999997
   177   4      1.0395066240187265      65.026914349366322      5.2105475048000001
   178   2      1.0395066240187265      65.026914349366322               2.9496935
   179   2      1.0395066240187265      65.026914349366322      7.0523489108000001
   180   3       1.077552268580465      127.42541791479972           11.8416575997
   181   3       1.077552268580465      127.42541791479972           16.1275452197
   182   2      1.0783513065240813      41.263548495195273           13.4298776893
   183   1      1.0857069176286169      121.52987438432439      3.0874183849999999
   184   1      1.0857069176286169      121.52987438432439      7.1900737958000001
   185   2      1.0857069180360581       35.36632535266498      5.0635815537999997
   186   2      1.1319072123848801      91.869285388437788      5.0635815537999997
   187   4      1.1319072127921999       5.705736356779286      5.2105475048000001
   188   2      1.1319072127921999       5.705736356779286               2.9496935
   189   2      1.1319072127921999       5.705736356779286      7.0523489108000001
   190   4      1.1553623834851674      138.68682741550256      13.808564961699998
   191   2      1.1553623834851674      138.68682741550256      11.293897032299999
   192   2      1.1553623834851674      138.68682741550256      15.579784652299999
   193   2      1.1579225689106964      52.520000696640388           13.4298776893
   194   2      1.1654824961757342       63.88486119536325           13.4298776893
   195   3      1.1662815341199568      150.05008983833758           11.8416575997
   196   3      1.1662815341199568      150.05008983833758           16.1275452197
   197   1      1.1781075064021762      62.208696391735828      3.0874183849999999
   198   1      1.1781075064021762      62.208696391735828      7.1900737958000001
   199   2      1.1781075068096833       148.3722454226569      5.0635815537999997
   200   2      1.2090480910024763       75.19551754544716           13.4298776893
   201   4      1.2098471289460853      161.36074618842164      13.808564961699998
   202   2      1.2098471289460853      161.36074618842164      11.293897032299999
   203   2      1.2098471289460853      161.36074618842164      15.579784652299999
   204   2      1.2243078011582524      32.548107395850593      5.0635815537999997
   205   4      1.2243078015656803      118.71165642677029      5.2105475048000001
   206   2      1.2243078015656803      118.71165642677029               2.9496935
   207   2      1.2243078015656803      118.71165642677029      7.0523489108000001
   208   2      1.2526136858292234      86.506173895530765           13.4298776893
   209   3      1.2534127237728385     0.34430447592632324           11.8416575997
   210   3      1.2534127237728385     0.34430447592632324           16.1275452197
   211   1      1.2705080951757282      2.8875183991492581      3.0874183849999999
   212   1      1.2705080951757282      2.8875183991492581      7.1900737958000001
   213   2      1.2705080955830059       89.05106743006894      5.0635815537999997
   214   2       1.296179280654755      97.816830245614682           13.4298776893
   215   4      1.2969783185989727      11.654960826010083      13.808564961699998
   216   2      1.2969783185989727      11.654960826010083      11.293897032299999
   217   2      1.2969783185989727      11.654960826010083      15.579784652299999
   218   2       1.316708389931718       145.5540274658419      5.0635815537999997
   219   4      1.3167083903394601      59.390478434183251      5.2105475048000001
   220   2      1.3167083903394601      59.390478434183251               2.9496935
   221   2      1.3167083903394601      59.390478434183251      7.0523489108000001
   222   2      1.3397448754814958      109.12748659569858           13.4298776893
   223   3      1.3405439134238795      22.965617176094298           11.8416575997
   224   3      1.3405439134238795      22.965617176094298           16.1275452197
   225   1      1.3629086839488793       115.8934384691398      3.0874183849999999
   226   1      1.3629086839488793       115.8934384691398      7.1900737958000001
   227   2      1.3629086843567604      29.729889437481148      5.0635815537999997
   228   2      1.4091089787050406      86.232849473253935      5.0635815537999997
   229   4      1.4091089791127871     0.06930044159468704      5.2105475048000001
   230   2      1.4091089791127871     0.06930044159468704               2.9496935
   231   2      1.4091089791127871     0.06930044159468704      7.0523489108000001
   232   4      1.4149948049595911      34.228624752683757      13.808564961699998
   233   2      1.4149948049595911      34.228624752683757      11.293897032299999
   234   2      1.4149948049595911      34.228624752683757      15.579784652299999
   235   2      1.4175549903861902      120.38889609640114           13.4298776893
   236   2      1.4268760651337506      131.74879929586672           13.4298776893
   237   3      1.4276751030767572      45.586929876262275           11.8416575997
   238   3      1.4276751030767572      45.586929876262275           16.1275452197
   239   1      1.4553092727227963      56.572260476552607      3.0874183849999999
   240   1      1.4553092727227963      56.572260476552607      7.1900737958000001
   241   2      1.4553092731301782      142.73580950747291      5.0635815537999997
   242   4      1.4712406979041222      56.897586226345879      13.808564961699998
   243   2      1.4712406979041222      56.897586226345879      11.293897032299999
   244   2      1.4712406979041222      56.897586226345879      15.579784652299999
   245   2       1.472039735847106      143.06281486932039           13.4298776893
   246   2      1.5015095674789791      26.911671480666456      5.0635815537999997
   247   4      1.5015095678861232      113.07522051158706      5.2105475048000001
   248   2      1.5015095678861232      113.07522051158706               2.9496935
   249   2      1.5015095678861232      113.07522051158706      7.0523489108000001
   250   3      1.5148062927296351      68.208242576429953           11.8416575997
   251   3      1.5148062927296351      68.208242576429953           16.1275452197
   252   2      1.5156053306738555        154.373471219404           13.4298776893
   253   1      1.5477098614960823      169.57818054654439      3.0874183849999999
   254   1      1.5477098614960823      169.57818054654439      7.1900737958000001
   255   2      1.5477098619035992      83.414631514885869      5.0635815537999997
   256   4      1.5583718875563821      79.518898926514169      13.808564961699998
   257   2      1.5583718875563821      79.518898926514169      11.293897032299999
   258   2      1.5583718875563821      79.518898926514169      15.579784652299999
   259   2       1.559170925499991      165.68412756948865           13.4298776893
   260   2      1.5939101562519942       139.9175915506579      5.0635815537999997
   261   4      1.5939101566598932      53.754042518999263      5.2105475048000001
   262   2      1.5939101566598932      53.754042518999263               2.9496935
   263   2      1.5939101566598932      53.754042518999263      7.0523489108000001
   264   3      1.6019374823825168      90.829555276597304           11.8416575997
   265   3      1.6019374823825168      90.829555276597304           16.1275452197
   266   2      1.6027365203255166      4.6676858569925592           13.4298776893
   267   1      1.6401104502698012      110.25700255395695      3.0874183849999999
   268   1      1.6401104502698012      110.25700255395695      7.1900737958000001
   269   2      1.6401104506770787      24.093453522297928      5.0635815537999997
   270   4      1.6746272264347901       102.0975201524445      13.808564961699998
   271   2      1.6746272264347901       102.0975201524445      11.293897032299999
   272   2      1.6746272264347901       102.0975201524445      15.579784652299999
   273   2      1.6771874118606149      15.930693433582324           13.4298776893
   274   2      1.6863107450256303      80.596413558071191      5.0635815537999997
   275   4      1.6863107454333717      166.75996258899104      5.2105475048000001
   276   2      1.6863107454333717      166.75996258899104               2.9496935
   277   2      1.6863107454333717      166.75996258899104      7.0523489108000001
   278   3      1.6890686720347803      113.45086797676529           11.8416575997
   279   3      1.6890686720347803      113.45086797676529           16.1275452197
   280   2      1.6898677099783947      27.288998557160685           13.4298776893
   281   1      1.7325110390431162      50.935824561369543      3.0874183849999999
   282   1      1.7325110390431162      50.935824561369543      7.1900737958000001
   283   2      1.7325110394507497      137.09937359228908      5.0635815537999997
   284   4      1.7326342668615327      124.76152432684904      13.808564961699998
   285   2      1.7326342668615327      124.76152432684904      11.293897032299999
   286   2      1.7326342668615327      124.76152432684904      15.579784652299999
   287   2      1.7334333048045256      38.599654907244755           13.4298776893
   288   3      1.7761998616870562      136.07218067693341           11.8416575997
   289   3      1.7761998616870562      136.07218067693341           16.1275452197
   290   2      1.7769988996312762      49.910311257328658           13.4298776893
   291   2      1.7787113337989904      21.275235565482927      5.0635815537999997
   292   4      1.7787113342069205      107.43878459640324      5.2105475048000001
   293   2      1.7787113342069205      107.43878459640324               2.9496935
   294   2      1.7787113342069205      107.43878459640324      7.0523489108000001
   295   2      1.8205644944567927      61.220967607413037           13.4298776893
   296   4      1.8213635324016226      147.38619625038677      13.808564961699998
   297   2      1.8213635324016226      147.38619625038677      11.293897032299999
   298   2      1.8213635324016226      147.38619625038677      15.579784652299999
   299   1      1.8249116278165969      163.94174463136054      3.0874183849999999
   300   1      1.8249116278165969      163.94174463136054      7.1900737958000001
   301   2      1.8249116282241251      77.778195599701888      5.0635815537999997
   302   2       1.864130089284147      72.531623957496336           13.4298776893
   303   3      1.8649291272271571      158.69685260047083           11.8416575997
   304   3      1.8649291272271571      158.69685260047083           16.1275452197
   305   2      1.8711119225727344      134.28115563547468      5.0635815537999997
   306   4      1.8711119229804041      48.117606603815425      5.2105475048000001
   307   2      1.8711119229804041      48.117606603815425               2.9496935
   308   2      1.8711119229804041      48.117606603815425      7.0523489108000001
   309   1      1.9173122165900767      104.62056663877335      3.0874183849999999
   310   1      1.9173122165900767      104.62056663877335      7.1900737958000001
   311   2      1.9173122169976651      18.457017607114093      5.0635815537999997
   312   4      1.9342596479099703      169.96641555220495      13.808564961699998
   313   2      1.9342596479099703      169.96641555220495      11.293897032299999
   314   2      1.9342596479099703      169.96641555220495      15.579784652299999
   315   2      1.9368198333358033      83.799588833343066           13.4298776893
   316   2      1.9512612789357986         95.152936657664           13.4298776893
   317   3      1.9520603168794184      8.9910672380595607           11.8416575997
   318   3      1.9520603168794184      8.9910672380595607           16.1275452197
   319   2      1.9635125113461478      74.959977642886898      5.0635815537999997
   320   4      1.9635125117539538      161.12352667380753      5.2105475048000001
   321   2      1.9635125117539538      161.12352667380753               2.9496935
   322   2      1.9635125117539538      161.12352667380753      7.0523489108000001
   323   2      1.9948268737625499      106.46359300774807           13.4298776893
   324   4      1.9956259117061648      20.301723588143776      13.808564961699998
   325   2      1.9956259117061648      20.301723588143776      11.293897032299999
   326   2      1.9956259117061648      20.301723588143776      15.579784652299999
   327   1      2.0097128053635935      45.299388646185548      3.0874183849999999
   328   1      2.0097128053635935      45.299388646185548      7.1900737958000001
   329   2      2.0097128057710716      131.46293767710586      5.0635815537999997
   330   2      2.0383924685886874      117.77424935783196           13.4298776893
   331   3      2.0391915065322976      31.612379938227228           11.8416575997
   332   3      2.0391915065322976      31.612379938227228           16.1275452197
   333   2      2.0559131001196951      15.638799650299706      5.0635815537999997
   334   4      2.0559131005274351      101.80234868121939      5.2105475048000001
   335   2      2.0559131005274351      101.80234868121939               2.9496935
   336   2      2.0559131005274351      101.80234868121939      7.0523489108000001
   337   2      2.0819580634148207      129.08490570791605           13.4298776893
   338   4      2.0827571013584349      42.923036288311145      13.808564961699998
   339   2      2.0827571013584349      42.923036288311145      11.293897032299999
   340   2      2.0827571013584349      42.923036288311145      15.579784652299999
   341   1      2.1021133941370138      158.30530871617736      3.0874183849999999
   342   1      2.1021133941370138      158.30530871617736      7.1900737958000001
   343   2      2.1021133945445443      72.141759684518064      5.0635815537999997
   344   3      2.1263226961845647       54.23369263839551           11.8416575997
   345   3      2.1263226961845647       54.23369263839551           16.1275452197
   346   2      2.1271217341281763       140.3989212813691           13.4298776893
   347   2      2.1483136888934746      128.64471972029085      5.0635815537999997
   348   4      2.1483136893009149      42.481170688632197      5.2105475048000001
   349   2      2.1483136893009149      42.481170688632197               2.9496935
   350   2      2.1483136893009149      42.481170688632197      7.0523489108000001
   351   1      2.1945139829105602      98.984130723589516      3.0874183849999999
   352   1      2.1945139829105602      98.984130723589516      7.1900737958000001
   353   2      2.1945139833183287      12.820581691930871      5.0635815537999997
   354   4      2.1956532168673846       65.50325559012947      13.808564961699998
   355   2      2.1956532168673846       65.50325559012947      11.293897032299999
   356   2      2.1956532168673846       65.50325559012947      15.579784652299999
   357   2      2.1964522548110001       151.6684842331035           13.4298776893