(written by ASE)

23870 atoms
4 atom types

0.0      162.43342839319308  xlo xhi
0.0      162.43342839319308  ylo yhi
0.0      63.177851719700001  zlo zhi

Masses

     1       137.3269999646734 # Ba
     2      15.998999995884349 # O
     3      207.19999994669897 # Pb
     4      47.866999987686484 # Ti

Atoms # atomic

     1   2  2.4178294712440048e-05      16.513024185955427           13.4298776893
     2   3  0.00011191371389713387       64.70422982960919           11.8416575997
     3   3  0.00011191371389713387       64.70422982960919           16.1275452197
     4   4   0.0001602703027442702      97.730278201520633      13.808564961699998
     5   2   0.0001602703027442702      97.730278201520633      11.293897032299999
     6   2   0.0001602703027442702      97.730278201520633      15.579784652299999
     7   2    0.018556360004520132      145.89390303806647           13.4298776893
     8   2     0.02450715541095709      100.40581715873905      5.0635815537999997
     9   1    0.024507155897435854      19.189102962398891      3.0874183849999999
    10   1    0.024507155897435854      19.189102962398891      7.1900737958000001
    11   2    0.045281356602750851       112.8875148423912           13.4298776893
    12   4    0.046224902532098933      31.669988642808956      13.808564961699998
    13   2    0.046224902532098933      31.669988642808956      11.293897032299999
    14   2    0.046224902532098933      31.669988642808956      15.579784652299999
    15   4    0.073521467192708245      57.567308885576089      5.2105475048000001
    16   2    0.073521467192708245      57.567308885576089               2.9496935
    17   2    0.073521467192708245      57.567308885576089      7.0523489108000001
    18   2    0.073521467679177471      138.78402308242914      5.0635815537999997
    19   3    0.091530437429562406      161.07052767115619           11.8416575997
    20   3    0.091530437429562406      161.07052767115619           16.1275452197
    21   2    0.091666529438758443      79.854353293528291           13.4298776893
    22   2     0.12253577846056435      14.728800613386078      5.0635815537999997
    23   1      0.1225357789470423      95.945514810238834      3.0874183849999999
    24   1      0.1225357789470423      95.945514810238834      7.1900737958000001
    25   4     0.13791561026442267      128.03736612229329      13.808564961699998
    26   2     0.13791561026442267      128.03736612229329      11.293897032299999
    27   2     0.13791561026442267      128.03736612229329      15.579784652299999
    28   2     0.13885915619318273      46.819839922711459           13.4298776893
    29   4     0.17155009024216258       134.3237207334152      5.2105475048000001
    30   2     0.17155009024216258       134.3237207334152               2.9496935
    31   2     0.17155009024216258       134.3237207334152      7.0523489108000001
    32   2     0.17155009072864094      53.107006537075435      5.0635815537999997
    33   2     0.18416469109123262      13.786950557865028           13.4298776893
    34   3      0.1843007830992687      95.004204573430627           11.8416575997
    35   3      0.1843007830992687      95.004204573430627           16.1275452197
    36   2     0.22056440151017281      91.485212461225316      5.0635815537999997
    37   1      0.2205644019966467      10.268498264885277      3.0874183849999999
    38   1      0.2205644019966467      10.268498264885277      7.1900737958000001
    39   2     0.23054986392550947      143.18721740219499           13.4298776893
    40   4     0.23149340985484604      61.969691202613376      13.808564961699998
    41   2     0.23149340985484604      61.969691202613376      11.293897032299999
    42   2     0.23149340985484604      61.969691202613376      15.579784652299999
    43   4     0.26957871329177335      48.646704188061975      5.2105475048000001
    44   2     0.26957871329177335      48.646704188061975               2.9496935
    45   2     0.26957871329177335      48.646704188061975      7.0523489108000001
    46   2     0.26957871377824494      129.86341838491487      5.0635815537999997
    47   3     0.27679894475231703      28.936801837767312           11.8416575997
    48   3     0.27679894475231703      28.936801837767312           16.1275452197
    49   2     0.27693503676150044      110.15405585333272           13.4298776893
    50   2     0.31859302455977456      5.8081959158715941      5.0635815537999997
    51   1     0.31859302504625192       87.02491011272464      3.0874183849999999
    52   1     0.31859302504625192       87.02491011272464      7.1900737958000001
    53   4     0.32318411758774218      158.33706868209688      13.808564961699998
    54   2     0.32318411758774218      158.33706868209688      11.293897032299999
    55   2     0.32318411758774218      158.33706868209688      15.579784652299999
    56   2     0.32412766351535488      77.119542482515655           13.4298776893
    57   4     0.36760733634166443      125.40311603590142      5.2105475048000001
    58   2     0.36760733634166443      125.40311603590142               2.9496935
    59   2     0.36760733634166443      125.40311603590142      7.0523489108000001
    60   2     0.36760733682785357      44.186401839561825      5.0635815537999997
    61   3     0.36956929042201636        125.303907133235           11.8416575997
    62   3     0.36956929042201636        125.303907133235           16.1275452197
    63   2     0.37051283635135418      44.086380933652585           13.4298776893
    64   2     0.41581837124882592      11.053491568806304           13.4298776893
    65   4     0.41595446325685398      92.270745584371326      13.808564961699998
    66   2     0.41595446325685398      92.270745584371326      11.293897032299999
    67   2     0.41595446325685398      92.270745584371326      15.579784652299999
    68   2     0.41662164760937814      82.564607763710967      5.0635815537999997
    69   1      0.4166216480958575      1.3478935673709369      3.0874183849999999
    70   1      0.4166216480958575      1.3478935673709369      7.1900737958000001
    71   2     0.46220354408481046      140.45375841313671           13.4298776893
    72   3     0.46314709001243337      59.236232213554871           11.8416575997
    73   3     0.46314709001243337      59.236232213554871           16.1275452197
    74   4     0.46563595939112384      39.726099490548286      5.2105475048000001
    75   2     0.46563595939112384      39.726099490548286               2.9496935
    76   2     0.46563595939112384      39.726099490548286      7.0523489108000001
    77   2     0.46563595987765677      120.94281368740162      5.0635815537999997
    78   4     0.50845262491048693      26.203342848708445      13.808564961699998
    79   2     0.50845262491048693      26.203342848708445      11.293897032299999
    80   2     0.50845262491048693      26.203342848708445      15.579784652299999
    81   2     0.50858871691793839      107.42059686427342           13.4298776893
    82   2     0.51465027065898805       159.3210196115505      5.0635815537999997
    83   1     0.51465027114545914       78.10430541521059      3.0874183849999999
    84   1     0.51465027114545914       78.10430541521059      7.1900737958000001
    85   3     0.55483779774532316      155.60360969303863           11.8416575997
    86   3     0.55483779774532316      155.60360969303863           16.1275452197
    87   2     0.55578134367410026      74.386083493456795           13.4298776893
    88   4     0.56366458244058837       116.4825113383875      5.2105475048000001
    89   2     0.56366458244058837       116.4825113383875               2.9496935
    90   2     0.56366458244058837       116.4825113383875      7.0523489108000001
    91   2     0.56366458292706334      35.265797142047624      5.0635815537999997
    92   4     0.60122297058017671      122.57044814417574      13.808564961699998
    93   2     0.60122297058017671      122.57044814417574      11.293897032299999
    94   2     0.60122297058017671      122.57044814417574      15.579784652299999
    95   2     0.60728342404795488      41.345890650808478           13.4298776893
    96   2     0.61267889370887829      73.644003066197499      5.0635815537999997
    97   1     0.61267889419505617      154.86071726305042      3.0874183849999999
    98   1     0.61267889419505617      154.86071726305042      7.1900737958000001
    99   2     0.64747205140699726       8.320032579747652           13.4298776893
   100   3     0.64760814341502282      89.537286595312835           11.8416575997
   101   3     0.64760814341502282      89.537286595312835           16.1275452197
   102   4     0.66169320549004829      30.805494793034807      5.2105475048000001
   103   2     0.66169320549004829      30.805494793034807               2.9496935
   104   2     0.66169320549004829      30.805494793034807      7.0523489108000001
   105   2     0.66169320597667214      112.02220898988699      5.0635815537999997
   106   2     0.69385722424126162      137.72029942407764           13.4298776893
   107   4     0.69480077017060504      56.502773224496003      13.808564961699998
   108   2     0.69480077017060504      56.502773224496003      11.293897032299999
   109   2     0.69480077017060504      56.502773224496003      15.579784652299999
   110   2     0.71070751675847621      150.40041491403673      5.0635815537999997
   111   1     0.71070751724481562      69.183700717697846      3.0874183849999999
   112   1     0.71070751724481562      69.183700717697846      7.1900737958000001
   113   3     0.74010630506808017       23.46988385964972           11.8416575997
   114   3     0.74010630506808017       23.46988385964972           16.1275452197
   115   2     0.74024239707610906      104.68713787521476           13.4298776893
   116   4     0.75972182853979842      107.56190664087332      5.2105475048000001
   117   2     0.75972182853979842      107.56190664087332               2.9496935
   118   2     0.75972182853979842      107.56190664087332      7.0523489108000001
   119   2     0.75972182902627494      26.345192444533431      5.0635815537999997
   120   4     0.78649147790350238      152.87015070397956      13.808564961699998
   121   2     0.78649147790350238      152.87015070397956      11.293897032299999
   122   2     0.78649147790350238      152.87015070397956      15.579784652299999
   123   2     0.78743502383168706      71.652624504398148           13.4298776893
   124   2     0.80873613980786785       64.72339836868403      5.0635815537999997
   125   1     0.80873614029428142      145.94011256553651      3.0874183849999999
   126   1     0.80873614029428142      145.94011256553651      7.1900737958000001
   127   3     0.83287665073835071      119.83698915511745           11.8416575997
   128   3     0.83287665073835071      119.83698915511745           16.1275452197
   129   2     0.83382019666711749      38.619462955534999           13.4298776893
   130   4     0.85775045158969032      21.884890095519896      5.2105475048000001
   131   2     0.85775045158969032      21.884890095519896               2.9496935
   132   2     0.85775045158969032      21.884890095519896      7.0523489108000001
   133   2     0.85775045207587652       103.1016042923731      5.0635815537999997
   134   2     0.87912573156459028      5.5865735906887837           13.4298776893
   135   4     0.87926182357262173      86.803827606253762      13.808564961699998
   136   2     0.87926182357262173      86.803827606253762      11.293897032299999
   137   2     0.87926182357262173      86.803827606253762      15.579784652299999
   138   2     0.90676476285769136      141.47981021652296      5.0635815537999997
   139   1     0.90676476334409351       60.26309602018322      3.0874183849999999
   140   1     0.90676476334409351       60.26309602018322      7.1900737958000001
   141   2     0.92551090439942574      134.98684043501899           13.4298776893
   142   3     0.93991808108813146      53.749844360051064           11.8416575997
   143   3     0.93991808108813146      53.749844360051064           16.1275452197
   144   4     0.95577907463900647      98.641301943360276      5.2105475048000001
   145   2     0.95577907463900647      98.641301943360276               2.9496935
   146   2     0.95577907463900647      98.641301943360276      7.0523489108000001
   147   2     0.95577907512555471      17.424587747020535      5.0635815537999997
   148   4     0.97175998522567353      20.736424870590636      13.808564961699998
   149   2     0.97175998522567353      20.736424870590636      11.293897032299999
   150   2     0.97175998522567353      20.736424870590636      15.579784652299999
   151   2     0.97189607723370519      101.95367888615608           13.4298776893
   152   2      1.0047933859072924      55.802793671169397      5.0635815537999997
   153   1      1.0047933863934895      137.01950786802274      3.0874183849999999
   154   1      1.0047933863934895      137.01950786802274      7.1900737958000001
   155   3       1.018145158061091      150.13669171492108           11.8416575997
   156   3       1.018145158061091      150.13669171492108           16.1275452197
   157   2      1.0190887039898564      68.919165515339202           13.4298776893
   158   4      1.0538076976888289      12.964285398006709      5.2105475048000001
   159   2      1.0538076976888289      12.964285398006709               2.9496935
   160   2      1.0538076976888289      12.964285398006709      7.0523489108000001
   161   2      1.0538076981750846       94.18099959485933      5.0635815537999997
   162   4      1.0645303308959431      117.10353016605839      13.808564961699998
   163   2      1.0645303308959431      117.10353016605839      11.293897032299999
   164   2      1.0645303308959431      117.10353016605839      15.579784652299999
   165   2      1.0654738768241321      35.886003966475982           13.4298776893
   166   2      1.1028220089568312      132.55920551900948      5.0635815537999997
   167   1      1.1028220094431633      51.342491322669751      3.0874183849999999
   168   1      1.1028220094431633      51.342491322669751      7.1900737958000001
   169   2      1.1107794117221834      2.8531146016299158           13.4298776893
   170   3      1.1109155037307901      84.070368617195513           11.8416575997
   171   3      1.1109155037307901      84.070368617195513           16.1275452197
   172   4      1.1518363207382181      89.720697245845656      5.2105475048000001
   173   2      1.1518363207382181      89.720697245845656               2.9496935
   174   2      1.1518363207382181      89.720697245845656      7.0523489108000001
   175   2       1.151836321224659      8.5039830495064859      5.0635815537999997
   176   2        1.15716458455702      132.25338144596046           13.4298776893
   177   4      1.1581081304857936      51.035855246378269      13.808564961699998
   178   2      1.1581081304857936      51.035855246378269      11.293897032299999
   179   2      1.1581081304857936      51.035855246378269      15.579784652299999
   180   2      1.2008506320064343      46.882188973655637      5.0635815537999997
   181   1      1.2008506324929862      128.09890317050852      3.0874183849999999
   182   1      1.2008506324929862      128.09890317050852      7.1900737958000001
   183   3      1.2034136653832657      18.002965881532415           11.8416575997
   184   3      1.2034136653832657      18.002965881532415           16.1275452197
   185   2       1.203549757391875      99.220219897097394           13.4298776893
   186   4      1.2497988382186889      147.40323272586198      13.808564961699998
   187   2      1.2497988382186889      147.40323272586198      11.293897032299999
   188   2      1.2497988382186889      147.40323272586198      15.579784652299999
   189   4      1.2498649437878218      4.0436807004920832      5.2105475048000001
   190   2      1.2498649437878218      4.0436807004920832               2.9496935
   191   2      1.2498649437878218      4.0436807004920832      7.0523489108000001
   192   2      1.2498649442742904      85.260394897345719      5.0635815537999997
   193   2       1.250742384147457      66.185706526280555           13.4298776893
   194   3      1.2961840110535325      114.37007117699972           11.8416575997
   195   3      1.2961840110535325      114.37007117699972           16.1275452197
   196   2      1.2971275569823053      33.152544977417477           13.4298776893
   197   2       1.298879255056038      123.63860082149543      5.0635815537999997
   198   1      1.2988792555424842      42.421886625155402      3.0874183849999999
   199   1      1.2988792555424842      42.421886625155402      7.1900737958000001
   200   2      1.3424330918797769     0.11965561257119178           13.4298776893
   201   4        1.34256918388897      81.336909628136198      13.808564961699998
   202   2        1.34256918388897      81.336909628136198      11.293897032299999
   203   2        1.34256918388897      81.336909628136198      15.579784652299999
   204   4      1.3478935668375678      80.800092548332188      5.2105475048000001
   205   2      1.3478935668375678      80.800092548332188               2.9496935
   206   2      1.3478935668375678      80.800092548332188      7.0523489108000001
   207   2      1.3478935673238923      162.01680674518497      5.0635815537999997
   208   2       1.388818264714617      129.51992245690181           13.4298776893
   209   3      1.3897618106439653      48.302396257319764           11.8416575997
   210   3      1.3897618106439653      48.302396257319764           16.1275452197
   211   2      1.3969078781054278      37.961584276141586      5.0635815537999997
   212   1      1.3969078785919107      119.17829847299463      3.0874183849999999
   213   1      1.3969078785919107      119.17829847299463      7.1900737958000001
   214   4      1.4350673455414369      15.269506892473114      13.808564961699998
   215   2      1.4350673455414369      15.269506892473114      11.293897032299999
   216   2      1.4350673455414369      15.269506892473114      15.579784652299999
   217   2      1.4352034375500466      96.486760908038519           13.4298776893
   218   4      1.4459221898870427      157.55650439617139      5.2105475048000001
   219   2      1.4459221898870427      157.55650439617139               2.9496935
   220   2      1.4459221898870427      157.55650439617139      7.0523489108000001
   221   2      1.4459221903734498      76.339790199831953      5.0635815537999997
   222   3      1.4814525183762783      144.66977373680331           11.8416575997
   223   3      1.4814525183762783      144.66977373680331           16.1275452197
   224   2      1.4823960643056244      63.452247537221901           13.4298776893
   225   2       1.494936501155034       114.7179961239811      5.0635815537999997
   226   1      1.4949365016415082      33.501281927641074      3.0874183849999999
   227   1      1.4949365016415082      33.501281927641074      7.1900737958000001
   228   4      1.5286451451312852      111.63526036598689      13.808564961699998
   229   2      1.5286451451312852      111.63526036598689      11.293897032299999
   230   2      1.5286451451312852      111.63526036598689      15.579784652299999
   231   2       1.528781237139899      30.419085988358823           13.4298776893
   232   4      1.5439508129366333      71.879487850817839      5.2105475048000001
   233   2      1.5439508129366333      71.879487850817839               2.9496935
   234   2      1.5439508129366333      71.879487850817839      7.0523489108000001
   235   2      1.5439508134230986      153.09620204767089      5.0635815537999997
   236   2      1.5740867720379497      159.81962501670537           13.4298776893
   237   3      1.5750303179661305      78.602098817123959           11.8416575997
   238   3      1.5750303179661305      78.602098817123959           16.1275452197
   239   2      1.5929651242046361      29.040979578627393      5.0635815537999997
   240   1      1.5929651246911163      110.25769377548103      3.0874183849999999
   241   1      1.5929651246911163      110.25769377548103      7.1900737958000001
   242   2      1.6204719448727878      126.78646346784292           13.4298776893
   243   4       1.621415490802135      45.568937268260463      13.808564961699998
   244   2       1.621415490802135      45.568937268260463      11.293897032299999
   245   2       1.621415490802135      45.568937268260463      15.579784652299999
   246   4      1.6419794359862319       148.6358996986572      5.2105475048000001
   247   2      1.6419794359862319       148.6358996986572               2.9496935
   248   2      1.6419794359862319       148.6358996986572      7.0523489108000001
   249   2      1.6419794364727165      67.419185502317191      5.0635815537999997
   250   3      1.6667210256996088      12.536047903414824           11.8416575997
   251   3      1.6667210256996088      12.536047903414824           16.1275452197
   252   2      1.6668571177076357       93.75330191897983           13.4298776893
   253   2      1.6909937472545291      105.79739142646733      5.0635815537999997
   254   1      1.6909937477407193      24.580677230127165      3.0874183849999999
   255   1      1.6909937477407193      24.580677230127165      7.1900737958000001
   256   4      1.7131061985344482       141.9363147477446      13.808564961699998
   257   2      1.7131061985344482       141.9363147477446      11.293897032299999
   258   2      1.7131061985344482       141.9363147477446      15.579784652299999
   259   2      1.7140497444626421      60.718788548163168           13.4298776893
   260   4      1.7400080590358431      62.958883153303645      5.2105475048000001
   261   2      1.7400080590358431      62.958883153303645               2.9496935
   262   2      1.7400080590358431      62.958883153303645      7.0523489108000001
   263   2      1.7400080595223195      144.17559735015683      5.0635815537999997
   264   2      1.7720205543303977      27.672371865649698           13.4298776893
   265   3      1.7721475482087852      108.88503514544936           11.8416575997
   266   3      1.7721475482087852      108.88503514544936           16.1275452197
   267   2      1.7890223703040633       20.12037488111406      5.0635815537999997
   268   1      1.7890223707904955      101.33708907796712      3.0874183849999999
   269   1      1.7890223707904955      101.33708907796712      7.1900737958000001
   270   2      1.8057404521955327      157.08616602764673           13.4298776893
   271   4      1.8066839981242959      75.868639828064886      13.808564961699998
   272   2      1.8066839981242959      75.868639828064886      11.293897032299999
   273   2      1.8066839981242959      75.868639828064886      15.579784652299999
   274   4      1.8380366820854499      139.71529500114332      5.2105475048000001
   275   2      1.8380366820854499      139.71529500114332               2.9496935
   276   2      1.8380366820854499      139.71529500114332      7.0523489108000001
   277   2      1.8380366825719261      58.498580804803709      5.0635815537999997
   278   3      1.8530691709591531      42.835478279202235           11.8416575997
   279   3      1.8530691709591531      42.835478279202235           16.1275452197
   280   2      1.8623594401092698      124.03894189121299           13.4298776893
   281   2      1.8870509933535573      96.876786728953874      5.0635815537999997
   282   1      1.8870509938399311      15.660072532613402      3.0874183849999999
   283   1      1.8870509938399311      15.660072532613402      7.1900737958000001
   284   4      1.8983747058572016      9.8025889143557396      13.808564961699998
   285   2      1.8983747058572016      9.8025889143557396      11.293897032299999
   286   2      1.8983747058572016      9.8025889143557396      15.579784652299999
   287   2      1.8985107978652338      91.019842929920969           13.4298776893
   288   4      1.9360653051350547      54.038278455790604      5.2105475048000001
   289   2      1.9360653051350547      54.038278455790604               2.9496935
   290   2      1.9360653051350547      54.038278455790604      7.0523489108000001
   291   2      1.9360653056215296      135.25499265264338      5.0635815537999997
   292   3      1.9447598786926308      139.20285575868635           11.8416575997
   293   3      1.9447598786926308      139.20285575868635           16.1275452197
   294   2      1.9457034246208138      57.985329559104308           13.4298776893
   295   2      1.9850796164030589      11.199770183599867      5.0635815537999997
   296   1      1.9850796168894744      92.416484380453639      3.0874183849999999
   297   1      1.9850796168894744      92.416484380453639      7.1900737958000001
   298   2      1.9910089595182849      24.952440194257878           13.4298776893
   299   4      1.9911450515263192      106.16969420982286      13.808564961699998
   300   2      1.9911450515263192      106.16969420982286      11.293897032299999
   301   2      1.9911450515263192      106.16969420982286      15.579784652299999
   302   4      2.0340939281848009      130.79469030363012      5.2105475048000001
   303   2      2.0340939281848009      130.79469030363012               2.9496935
   304   2      2.0340939281848009      130.79469030363012      7.0523489108000001
   305   2      2.0340939286711386      49.577976107290091      5.0635815537999997
   306   2      2.0373941323536973      154.35270703858785           13.4298776893
   307   3      2.0383376782818932      73.135180839006594           11.8416575997
   308   3      2.0383376782818932      73.135180839006594           16.1275452197
   309   2      2.0831082394526637      87.956182031439241      5.0635815537999997
   310   1      2.0831082399391416      6.7394678350997852      3.0874183849999999
   311   1      2.0831082399391416      6.7394678350997852      7.1900737958000001
   312   2      2.0837793051885551      121.31954548972536           13.4298776893
   313   4      2.0847228511173213      40.102019290143367      13.808564961699998
   314   2      2.0847228511173213      40.102019290143367      11.293897032299999
   315   2      2.0847228511173213      40.102019290143367      15.579784652299999
   316   3      2.1300283860153719      7.0691299252973039           11.8416575997
   317   3      2.1300283860153719      7.0691299252973039           16.1275452197
   318   2      2.1301644780234037      88.286383940862279           13.4298776893
   319   4       2.132122551234481      45.117673758276261      5.2105475048000001
   320   2       2.132122551234481      45.117673758276261               2.9496935
   321   2       2.132122551234481      45.117673758276261      7.0523489108000001
   322   2      2.1321225517207432      126.33438795512932      5.0635815537999997
   323   2      2.1773571047789821       55.25187057004544           13.4298776893
   324   2       2.181136862502413      2.2791654860862494      5.0635815537999997
   325   1      2.1811368629887391      83.495879682939162      3.0874183849999999
   326   1      2.1811368629887391      83.495879682939162      7.1900737958000001
   327   4      2.1952662811651487       136.4439752383928      13.808564961699998
   328   2      2.1952662811651487       136.4439752383928      11.293897032299999
   329   2      2.1952662811651487       136.4439752383928      15.579784652299999
   330   2      2.2226626396764564       22.21898120519894           13.4298776893
   331   3      2.2227987316844939       103.4362352207646           11.8416575997
   332   3      2.2227987316844939       103.4362352207646           16.1275452197
   333   4       2.230151174283868      121.87408560611534      5.2105475048000001
   334   2       2.230151174283868      121.87408560611534               2.9496935
   335   2       2.230151174283868      121.87408560611534      7.0523489108000001
   336   2      2.2301511747703473      40.657371409775735      5.0635815537999997
   337   2      2.2690478125113134      151.61924804952938           13.4298776893
   338   4      2.2699913584400675      70.401721849947577      13.808564961699998
   339   2      2.2699913584400675      70.401721849947577      11.293897032299999
   340   2      2.2699913584400675      70.401721849947577      15.579784652299999
   341   2      2.2791654855518719      79.035577333925474      5.0635815537999997
   342   1      2.2791654860383508      160.25229153077851      3.0874183849999999
   343   1      2.2791654860383508      160.25229153077851      7.1900737958000001
   344   2      2.3154329853467313      118.58608650066689           13.4298776893
   345   3      2.3163765312749183      37.368560301084642           11.8416575997
   346   3      2.3163765312749183      37.368560301084642           16.1275452197
   347   4      2.3281797973334757      36.197069060762068      5.2105475048000001
   348   2      2.3281797973334757      36.197069060762068               2.9496935
   349   2      2.3281797973334757      36.197069060762068      7.0523489108000001
   350   2      2.3281797978199519      117.41378325761556      5.0635815537999997
   351   4      2.3616820661729654      4.3356709362382189      13.808564961699998
   352   2      2.3616820661729654      4.3356709362382189      11.293897032299999
   353   2      2.3616820661729654      4.3356709362382189      15.579784652299999
   354   2      2.3618181581809923       85.55292495180359           13.4298776893
   355   2      2.3771941086014747      155.79198918176499      5.0635815537999997
   356   1      2.3771941090879514      74.575274985424826      3.0874183849999999
   357   1      2.3771941090879514      74.575274985424826      7.1900737958000001