(written by ASE)

23870 atoms
4 atom types

0.0      162.43342839319308  xlo xhi
0.0      162.43342839319308  ylo yhi
0.0      63.177851719700001  zlo zhi

Masses

     1       137.3269999646734 # Ba
     2      15.998999995884349 # O
     3      207.19999994669897 # Pb
     4      47.866999987686484 # Ti

Atoms # atomic

     1   2  2.4178294712082329e-05      16.513024185959825           13.4298776893
     2   4  0.00011191371389465236      64.704229829604756      13.808564961699998
     3   2  0.00011191371389465236      64.704229829604756      11.293897032299999
     4   2  0.00011191371389465236      64.704229829604756      15.579784652299999
     5   3  0.00016027030274533453      97.730278201525024           11.8416575997
     6   3  0.00016027030274533453      97.730278201525024           16.1275452197
     7   2    0.018556360008875995      145.89390303806587           13.4298776893
     8   4    0.024507155457904266      100.40581715865078      5.2105475048000001
     9   2    0.024507155457904266      100.40581715865078               2.9496935
    10   2    0.024507155457904266      100.40581715865078      7.0523489108000001
    11   2     0.02450715594432443      19.189102962311033      5.0635815537999997
    12   2    0.045281356602748367      112.88751484238676           13.4298776893
    13   3    0.046224902532099293      31.669988642804558           11.8416575997
    14   3    0.046224902532099293      31.669988642804558           16.1275452197
    15   2    0.073521467239303973      57.567308885487151      5.0635815537999997
    16   1    0.073521467725785508      138.78402308234027      3.0874183849999999
    17   1    0.073521467725785508      138.78402308234027      7.1900737958000001
    18   4    0.091530437429573203      161.07052767115172      13.808564961699998
    19   2    0.091530437429573203      161.07052767115172      11.293897032299999
    20   2    0.091530437429573203      161.07052767115172      15.579784652299999
    21   2    0.091666529438759775      79.854353293523502           13.4298776893
    22   4     0.12253577850759677      14.728800613297206      5.2105475048000001
    23   2     0.12253577850759677      14.728800613297206               2.9496935
    24   2     0.12253577850759677      14.728800613297206      7.0523489108000001
    25   2     0.12253577899378346      95.945514810149973      5.0635815537999997
    26   3     0.13791561026441307      128.03736612228886           11.8416575997
    27   3     0.13791561026441307      128.03736612228886           16.1275452197
    28   2     0.13885915619376341      46.819839922706628           13.4298776893
    29   2     0.17155009028890753      134.32372073332647      5.0635815537999997
    30   1     0.17155009077538566      53.107006536986567      3.0874183849999999
    31   1     0.17155009077538566      53.107006536986567      7.1900737958000001
    32   2     0.18416469109180986      13.786950557860557           13.4298776893
    33   4     0.18430078309926101      95.004204573426009      13.808564961699998
    34   2     0.18430078309926101      95.004204573426009      11.293897032299999
    35   2     0.18430078309926101      95.004204573426009      15.579784652299999
    36   4     0.22056440155704848       91.48521246113674      5.2105475048000001
    37   2     0.22056440155704848       91.48521246113674               2.9496935
    38   2     0.22056440155704848       91.48521246113674      7.0523489108000001
    39   2     0.22056440204360311      10.268498264796982      5.0635815537999997
    40   2      0.2305498639266472      143.18721740219078           13.4298776893
    41   3     0.23149340985484804      61.969691202608978           11.8416575997
    42   3     0.23149340985484804      61.969691202608978           16.1275452197
    43   2     0.26957871333851446      48.646704187973462      5.0635815537999997
    44   1     0.26957871382491971       129.8634183848271      3.0874183849999999
    45   1     0.26957871382491971       129.8634183848271      7.1900737958000001
    46   4     0.27679894475347078      28.936801837762694      13.808564961699998
    47   2     0.27679894475347078      28.936801837762694      11.293897032299999
    48   2     0.27679894475347078      28.936801837762694      15.579784652299999
    49   2     0.27693503676092668      110.15405585332789           13.4298776893
    50   4     0.31859302460680611      5.8081959157827239      5.2105475048000001
    51   2     0.31859302460680611      5.8081959157827239               2.9496935
    52   2     0.31859302460680611      5.8081959157827239      7.0523489108000001
    53   2     0.31859302509298498      87.024910112636221      5.0635815537999997
    54   3     0.32318411758773213      158.33706868209268           11.8416575997
    55   3     0.32318411758773213      158.33706868209268           16.1275452197
    56   2      0.3241276635165149       77.11954248251125           13.4298776893
    57   2     0.36760733638825294      125.40311603581357      5.0635815537999997
    58   1     0.36760733687477803      44.186401839473241      3.0874183849999999
    59   1     0.36760733687477803      44.186401839473241      7.1900737958000001
    60   4     0.36956929042257958      125.30390713322981      13.808564961699998
    61   2     0.36956929042257958      125.30390713322981      11.293897032299999
    62   2     0.36956929042257958      125.30390713322981      15.579784652299999
    63   2     0.37051283635135335      44.086380933647966           13.4298776893
    64   2     0.41581837124882609      11.053491568801688           13.4298776893
    65   3     0.41595446325743318      92.270745584366921           11.8416575997
    66   3     0.41595446325743318      92.270745584366921           16.1275452197
    67   4     0.41662164765627036      82.564607763622959      5.2105475048000001
    68   2     0.41662164765627036      82.564607763622959               2.9496935
    69   2     0.41662164765627036      82.564607763622959      7.0523489108000001
    70   2     0.41662164814260083      1.3478935672824994      5.0635815537999997
    71   2     0.46220354408481701      140.45375841313211           13.4298776893
    72   4     0.46314709001301541      59.236232213550686      13.808564961699998
    73   2     0.46314709001301541      59.236232213550686      11.293897032299999
    74   2     0.46314709001301541      59.236232213550686      15.579784652299999
    75   2     0.46563595943794311      39.726099490459696      5.0635815537999997
    76   1     0.46563595992433537      120.94281368731276      3.0874183849999999
    77   1     0.46563595992433537      120.94281368731276      7.1900737958000001
    78   3     0.50845262491106247       26.20334284870361           11.8416575997
    79   3     0.50845262491106247       26.20334284870361           16.1275452197
    80   2     0.50858871691851759      107.42059686426902           13.4298776893
    81   4     0.51465027070571401      159.32101961146205      5.2105475048000001
    82   2     0.51465027070571401      159.32101961146205               2.9496935
    83   2     0.51465027070571401      159.32101961146205      7.0523489108000001
    84   2     0.51465027119220308      78.104305415122298      5.0635815537999997
    85   4     0.55483779774591091       155.6036096930338      13.808564961699998
    86   2     0.55483779774591091       155.6036096930338      11.293897032299999
    87   2     0.55483779774591091       155.6036096930338      15.579784652299999
    88   2     0.55578134367466991      74.386083493452546           13.4298776893
    89   2     0.56366458248733275      116.48251133829875      5.0635815537999997
    90   1     0.56366458297380617      35.265797141959474      3.0874183849999999
    91   1     0.56366458297380617      35.265797141959474      7.1900737958000001
    92   3      0.6012229705801766      122.57044814417091           11.8416575997
    93   3      0.6012229705801766      122.57044814417091           16.1275452197
    94   2     0.60728342404940028      41.345890650804868           13.4298776893
    95   4     0.61267889375561946      73.644003066108624      5.2105475048000001
    96   2     0.61267889375561946      73.644003066108624               2.9496935
    97   2     0.61267889375561946      73.644003066108624      7.0523489108000001
    98   2     0.61267889424180966      154.86071726296197      5.0635815537999997
    99   2      0.6474720514075738      8.3200325797430352           13.4298776893
   100   4     0.64760814341502981      89.537286595308004      13.808564961699998
   101   2     0.64760814341502981      89.537286595308004      11.293897032299999
   102   2     0.64760814341502981      89.537286595308004      15.579784652299999
   103   2     0.66169320553693678      30.805494792945648      5.0635815537999997
   104   1     0.66169320602340809      112.02220898979843      3.0874183849999999
   105   1     0.66169320602340809      112.02220898979843      7.1900737958000001
   106   2     0.69385722424185314       137.7202994240734           13.4298776893
   107   3     0.69480077017060782      56.502773224491385           11.8416575997
   108   3     0.69480077017060782      56.502773224491385           16.1275452197
   109   4     0.71070751680522581      150.40041491394814      5.2105475048000001
   110   2     0.71070751680522581      150.40041491394814               2.9496935
   111   2     0.71070751680522581      150.40041491394814      7.0523489108000001
   112   2      0.7107075172916969      69.183700717608247      5.0635815537999997
   113   4     0.74010630506808117      23.469883859645101      13.808564961699998
   114   2     0.74010630506808117      23.469883859645101      11.293897032299999
   115   2     0.74010630506808117      23.469883859645101      15.579784652299999
   116   2     0.74024239707668837      104.68713787521013           13.4298776893
   117   2     0.75972182858653148      107.56190664078488      5.0635815537999997
   118   1     0.75972182907301944      26.345192444445281      3.0874183849999999
   119   1     0.75972182907301944      26.345192444445281      7.1900737958000001
   120   3     0.78649147790348806      152.87015070397496           11.8416575997
   121   3     0.78649147790348806      152.87015070397496           16.1275452197
   122   2     0.78743502383168695      71.652624504393671           13.4298776893
   123   4      0.8087361398546089      64.723398368595156      5.2105475048000001
   124   2      0.8087361398546089      64.723398368595156               2.9496935
   125   2      0.8087361398546089      64.723398368595156      7.0523489108000001
   126   2     0.80873614034103347      145.94011256544775      5.0635815537999997
   127   4     0.83287665073834494      119.83698915511266      13.808564961699998
   128   2     0.83287665073834494      119.83698915511266      11.293897032299999
   129   2     0.83287665073834494      119.83698915511266      15.579784652299999
   130   2     0.83382019666711593      38.619462955530594           13.4298776893
   131   2      0.8577504516361435      21.884890095431892      5.0635815537999997
   132   1     0.85775045212263135      103.10160429228493      3.0874183849999999
   133   1     0.85775045212263135      103.10160429228493      7.1900737958000001
   134   2      0.8791257315645904      5.5865735906841669           13.4298776893
   135   3     0.87926182357320193      86.803827606249158           11.8416575997
   136   3     0.87926182357320193      86.803827606249158           16.1275452197
   137   4      0.9067647629041431      141.47981021643423      5.2105475048000001
   138   2      0.9067647629041431      141.47981021643423               2.9496935
   139   2      0.9067647629041431      141.47981021643423      7.0523489108000001
   140   2     0.90676476339062273      60.263096020094281      5.0635815537999997
   141   2     0.92551090440001016      134.98684043501476           13.4298776893
   142   4     0.93991808109173991      53.749844360049913      13.808564961699998
   143   2     0.93991808109173991      53.749844360049913      11.293897032299999
   144   2     0.93991808109173991      53.749844360049913      15.579784652299999
   145   2     0.95577907468574619      98.641301943271117      5.0635815537999997
   146   1     0.95577907517222749      17.424587746931088      3.0874183849999999
   147   1     0.95577907517222749      17.424587746931088      7.1900737958000001
   148   3     0.97175998522625173      20.736424870586013           11.8416575997
   149   3     0.97175998522625173      20.736424870586013           16.1275452197
   150   2     0.97189607723428539      101.95367888615147           13.4298776893
   151   4      1.0047933859540419      55.802793671080813      5.2105475048000001
   152   2      1.0047933859540419      55.802793671080813               2.9496935
   153   2      1.0047933859540419      55.802793671080813      7.0523489108000001
   154   2      1.0047933864402241      137.01950786793387      5.0635815537999997
   155   4      1.0181451580610974      150.13669171491622      13.808564961699998
   156   2      1.0181451580610974      150.13669171491622      11.293897032299999
   157   2      1.0181451580610974      150.13669171491622      15.579784652299999
   158   2      1.0190887039898584      68.919165515334797           13.4298776893
   159   2       1.053807697735355      12.964285397917388      5.0635815537999997
   160   1       1.053807698221833      94.180999594770455      3.0874183849999999
   161   1       1.053807698221833      94.180999594770455      7.1900737958000001
   162   3       1.064530330895944      117.10353016605335           11.8416575997
   163   3       1.064530330895944      117.10353016605335           16.1275452197
   164   2       1.065473876824711      35.886003966471513           13.4298776893
   165   4      1.1028220090034957      132.55920551892063      5.2105475048000001
   166   2      1.1028220090034957      132.55920551892063               2.9496935
   167   2      1.1028220090034957      132.55920551892063      7.0523489108000001
   168   2      1.1028220094900514      51.342491322580877      5.0635815537999997
   169   2       1.110779411722761      2.8531146016252271           13.4298776893
   170   4      1.1109155037307901      84.070368617190681      13.808564961699998
   171   2      1.1109155037307901      84.070368617190681      11.293897032299999
   172   2      1.1109155037307901      84.070368617190681      15.579784652299999
   173   2      1.1518363207849562      89.720697245756924      5.0635815537999997
   174   1       1.151836321271438      8.5039830494167497      3.0874183849999999
   175   1       1.151836321271438      8.5039830494167497      7.1900737958000001
   176   2      1.1571645845575991      132.25338144595608           13.4298776893
   177   3      1.1581081304863736      51.035855246374012           11.8416575997
   178   3      1.1581081304863736      51.035855246374012           16.1275452197
   179   4      1.2008506320532524      46.882188973566763      5.2105475048000001
   180   2      1.2008506320532524      46.882188973566763               2.9496935
   181   2      1.2008506320532524      46.882188973566763      7.0523489108000001
   182   2      1.2008506325396506      128.09890317042039      5.0635815537999997
   183   4      1.2034136653838436      18.002965881527729      13.808564961699998
   184   2      1.2034136653838436      18.002965881527729      11.293897032299999
   185   2      1.2034136653838436      18.002965881527729      15.579784652299999
   186   2      1.2035497573924543      99.220219897092989           13.4298776893
   187   3      1.2497988382186964      147.40323272585718           11.8416575997
   188   3      1.2497988382186964      147.40323272585718           16.1275452197
   189   2      1.2498649438345653      4.0436807004032129      5.0635815537999997
   190   1      1.2498649443210297      85.260394897256774      3.0874183849999999
   191   1      1.2498649443210297      85.260394897256774      7.1900737958000001
   192   2      1.2507423841474556      66.185706526276149           13.4298776893
   193   4      1.2961840110541127       114.3700711769951      13.808564961699998
   194   2      1.2961840110541127       114.3700711769951      11.293897032299999
   195   2      1.2961840110541127       114.3700711769951      15.579784652299999
   196   2       1.297127556982882      33.152544977412859           13.4298776893
   197   4      1.2988792551028483      123.63860082140629      5.2105475048000001
   198   2      1.2988792551028483      123.63860082140629               2.9496935
   199   2      1.2988792551028483      123.63860082140629      7.0523489108000001
   200   2       1.298879255589261      42.421886625067401      5.0635815537999997
   201   2      1.3424330918797769     0.11965561256679168           13.4298776893
   202   3      1.3425691838889642      81.336909628131409           11.8416575997
   203   3      1.3425691838889642      81.336909628131409           16.1275452197
   204   2      1.3478935668841701      80.800092548243583      5.0635815537999997
   205   1      1.3478935673706371      162.01680674509623      3.0874183849999999
   206   1      1.3478935673706371      162.01680674509623      7.1900737958000001
   207   2      1.3888182647151952      129.51992245689738           13.4298776893
   208   4      1.3897618106445417      48.302396257315145      13.808564961699998
   209   2      1.3897618106445417      48.302396257315145      11.293897032299999
   210   2      1.3897618106445417      48.302396257315145      15.579784652299999
   211   4      1.3969078781521698      37.961584276053578      5.2105475048000001
   212   2      1.3969078781521698      37.961584276053578               2.9496935
   213   2      1.3969078781521698      37.961584276053578      7.0523489108000001
   214   2      1.3969078786387956      119.17829847290662      5.0635815537999997
   215   3      1.4350673455420153      15.269506892468497           11.8416575997
   216   3      1.4350673455420153      15.269506892468497           16.1275452197
   217   2      1.4352034375500438      96.486760908034313           13.4298776893
   218   2      1.4459221899337678      157.55650439608343      5.0635815537999997
   219   1      1.4459221904202497      76.339790199742936      3.0874183849999999
   220   1      1.4459221904202497      76.339790199742936      7.1900737958000001
   221   4      1.4814525183768563       144.6697737367991      13.808564961699998
   222   2      1.4814525183768563       144.6697737367991      11.293897032299999
   223   2      1.4814525183768563       144.6697737367991      15.579784652299999
   224   2      1.4823960643056247      63.452247537217431           13.4298776893
   225   4      1.4949365012017779       114.7179961238928      5.2105475048000001
   226   2      1.4949365012017779       114.7179961238928               2.9496935
   227   2      1.4949365012017779       114.7179961238928      7.0523489108000001
   228   2      1.4949365016882541       33.50128192755249      5.0635815537999997
   229   3      1.5286451451324292      111.63526036598243           11.8416575997
   230   3      1.5286451451324292      111.63526036598243           16.1275452197
   231   2      1.5287812371404745      30.419085988354354           13.4298776893
   232   2       1.543950812983522      71.879487850729831      5.0635815537999997
   233   1      1.5439508134698521      153.09620204758244      3.0874183849999999
   234   1      1.5439508134698521      153.09620204758244      7.1900737958000001
   235   2      1.5740867720379397      159.81962501670117           13.4298776893
   236   4      1.5750303179672904      78.602098817119554      13.808564961699998
   237   2      1.5750303179672904      78.602098817119554      11.293897032299999
   238   2      1.5750303179672904      78.602098817119554      15.579784652299999
   239   4      1.5929651242516669      29.040979578539098      5.2105475048000001
   240   2      1.5929651242516669      29.040979578539098               2.9496935
   241   2      1.5929651242516669      29.040979578539098      7.0523489108000001
   242   2      1.5929651247379271      110.25769377539287      5.0635815537999997
   243   2      1.6204719448727871       126.7864634678383           13.4298776893
   244   3       1.621415490802137      45.568937268256064           11.8416575997
   245   3       1.621415490802137      45.568937268256064           16.1275452197
   246   2      1.6419794360329782      148.63589969856875      5.0635815537999997
   247   1      1.6419794365194624      67.419185502228601      3.0874183849999999
   248   1      1.6419794365194624      67.419185502228601      7.1900737958000001
   249   4      1.6667210256996079       12.53604790340999      13.808564961699998
   250   2      1.6667210256996079       12.53604790340999      11.293897032299999
   251   2      1.6667210256996079       12.53604790340999      15.579784652299999
   252   2      1.6668571177076332      93.753301918975396           13.4298776893
   253   4      1.6909937473010561      105.79739142637904      5.2105475048000001
   254   2      1.6909937473010561      105.79739142637904               2.9496935
   255   2      1.6909937473010561      105.79739142637904      7.0523489108000001
   256   2      1.6909937477875741      24.580677230039015      5.0635815537999997
   257   3      1.7131061985350284         141.93631474774           11.8416575997
   258   3      1.7131061985350284         141.93631474774           16.1275452197
   259   2      1.7140497444632181      60.718788548158777           13.4298776893
   260   2      1.7400080590825882      62.958883153215623      5.0635815537999997
   261   1      1.7400080595690568      144.17559735006856      3.0874183849999999
   262   1      1.7400080595690568      144.17559735006856      7.1900737958000001
   263   2      1.7720205543327059      27.672371865647676           13.4298776893
   264   4      1.7721475482121032       108.8850351454482      13.808564961699998
   265   2      1.7721475482121032       108.8850351454482      11.293897032299999
   266   2      1.7721475482121032       108.8850351454482      15.579784652299999
   267   4      1.7890223703505912      20.120374881025192      5.2105475048000001
   268   2      1.7890223703505912      20.120374881025192               2.9496935
   269   2      1.7890223703505912      20.120374881025192      7.0523489108000001
   270   2      1.7890223708370756      101.33708907787825      5.0635815537999997
   271   2      1.8057404521960987      157.08616602764209           13.4298776893
   272   3      1.8066839981248752      75.868639828060481           11.8416575997
   273   3      1.8066839981248752      75.868639828060481           16.1275452197
   274   2      1.8380366821321883       139.7152950010553      5.0635815537999997
   275   1       1.838036682618672      58.498580804715125      3.0874183849999999
   276   1       1.838036682618672      58.498580804715125      7.1900737958000001
   277   4      1.8530691709597298      42.835478279197623      13.808564961699998
   278   2      1.8530691709597298      42.835478279197623      11.293897032299999
   279   2      1.8530691709597298      42.835478279197623      15.579784652299999
   280   2      1.8623594401112895      124.03894189121095           13.4298776893
   281   4      1.8870509934001947      96.876786728864559      5.2105475048000001
   282   2      1.8870509934001947      96.876786728864559               2.9496935
   283   2      1.8870509934001947      96.876786728864559      7.0523489108000001
   284   2      1.8870509938866751      15.660072532524534      5.0635815537999997
   285   3      1.8983747058577787      9.8025889143511211           11.8416575997
   286   3      1.8983747058577787      9.8025889143511211           16.1275452197
   287   2      1.8985107978652336      91.019842929916138           13.4298776893
   288   2      1.9360653051817949      54.038278455701445      5.0635815537999997
   289   1      1.9360653056682726      135.25499265255456      3.0874183849999999
   290   1      1.9360653056682726      135.25499265255456      7.1900737958000001
   291   4      1.9447598786920466      139.20285575868215      13.808564961699998
   292   2      1.9447598786920466      139.20285575868215      11.293897032299999
   293   2      1.9447598786920466      139.20285575868215      15.579784652299999
   294   2      1.9457034246213856      57.985329559100123           13.4298776893
   295   4       1.985079616449801      11.199770183510852      5.2105475048000001
   296   2       1.985079616449801      11.199770183510852               2.9496935
   297   2       1.985079616449801      11.199770183510852      7.0523489108000001
   298   2      1.9850796169362714      92.416484380364054      5.0635815537999997
   299   2      1.9910089595188629      24.952440194253189           13.4298776893
   300   3      1.9911450515268982      106.16969420981846           11.8416575997
   301   3      1.9911450515268982      106.16969420981846           16.1275452197
   302   2      2.0340939282314108      130.79469030354082      5.0635815537999997
   303   1      2.0340939287178799      49.577976107201216      3.0874183849999999
   304   1      2.0340939287178799      49.577976107201216      7.1900737958000001
   305   2      2.0373941323542772      154.35270703858325           13.4298776893
   306   4      2.0383376782824802      73.135180839001976      13.808564961699998
   307   2      2.0383376782824802      73.135180839001976      11.293897032299999
   308   2      2.0383376782824802      73.135180839001976      15.579784652299999
   309   4      2.0831082394994085      87.956182031350508      5.2105475048000001
   310   2      2.0831082394994085      87.956182031350508               2.9496935
   311   2      2.0831082394994085      87.956182031350508      7.0523489108000001
   312   2      2.0831082399858847       6.739467835010843      5.0635815537999997
   313   2      2.0837793051885565      121.31954548972057           13.4298776893
   314   3      2.0847228511173186      40.102019290138685           11.8416575997
   315   3      2.0847228511173186      40.102019290138685           16.1275452197
   316   4      2.1300283860153719      7.0691299252926143      13.808564961699998
   317   2      2.1300283860153719      7.0691299252926143      11.293897032299999
   318   2      2.1300283860153719      7.0691299252926143      15.579784652299999
   319   2      2.1301644780239775      88.286383940857462           13.4298776893
   320   2      2.1321225512810069       45.11767375818733      5.0635815537999997
   321   1      2.1321225517674844      126.33438795504044      3.0874183849999999
   322   1      2.1321225517674844      126.33438795504044      7.1900737958000001
   323   2      2.1773571047789813      55.251870570041184           13.4298776893
   324   4      2.1811368625493004      2.2791654859970905      5.2105475048000001
   325   2      2.1811368625493004      2.2791654859970905               2.9496935
   326   2      2.1811368625493004      2.2791654859970905      7.0523489108000001
   327   2      2.1811368630356256      83.495879682850727      5.0635815537999997
   328   3      2.1952662811700323       136.4439752383928           11.8416575997
   329   3      2.1952662811700323       136.4439752383928           16.1275452197
   330   2      2.2226626396764555      22.218981205194321           13.4298776893
   331   4      2.2227987316850664      103.43623522075994      13.808564961699998
   332   2      2.2227987316850664      103.43623522075994      11.293897032299999
   333   2      2.2227987316850664      103.43623522075994      15.579784652299999
   334   2      2.2301511743306119      121.87408560602705      5.0635815537999997
   335   1      2.2301511748170921      40.657371409686746      3.0874183849999999
   336   1      2.2301511748170921      40.657371409686746      7.1900737958000001
   337   2      2.2690478125113072      151.61924804952432           13.4298776893
   338   3      2.2699913584406475      70.401721849943314           11.8416575997
   339   3      2.2699913584406475      70.401721849943314           16.1275452197
   340   4      2.2791654855988339       79.03557733383748      5.2105475048000001
   341   2      2.2791654855988339       79.03557733383748               2.9496935
   342   2      2.2791654855988339       79.03557733383748      7.0523489108000001
   343   2      2.2791654860850699      160.25229153069083      5.0635815537999997
   344   2      2.3154329853467264      118.58608650066188           13.4298776893
   345   4      2.3163765312749169      37.368560301080251      13.808564961699998
   346   2      2.3163765312749169      37.368560301080251      11.293897032299999
   347   2      2.3163765312749169      37.368560301080251      15.579784652299999
   348   2      2.3281797973802152      36.197069060673201      5.0635815537999997
   349   1      2.3281797978666829      117.41378325752683      3.0874183849999999
   350   1      2.3281797978666829      117.41378325752683      7.1900737958000001
   351   3      2.3616820661729654      4.3356709362335302           11.8416575997
   352   3      2.3616820661729654      4.3356709362335302           16.1275452197
   353   2      2.3618181581809945      85.552924951798573           13.4298776893
   354   4      2.3771941086482187      155.79198918167671      5.2105475048000001
   355   2      2.3771941086482187      155.79198918167671               2.9496935
   356   2      2.3771941086482187      155.79198918167671      7.0523489108000001
   357   2      2.3771941091346909      74.575274985336378      5.0635815537999997