(written by ASE)

17878 atoms
4 atom types

0.0      140.57239602909374  xlo xhi
0.0      140.57239602909374  ylo yhi
0.0      63.177851719700001  zlo zhi

Masses

     1       137.3269999646734 # Ba
     2      15.998999995884349 # O
     3      207.19999994669897 # Pb
     4      47.866999987686484 # Ti

Atoms # atomic

     1   3  3.8050620147398016e-05      84.157355978427915           11.8416575997
     2   3  3.8050620147398016e-05      84.157355978427915           16.1275452197
     3   2   0.0001703844725012178      126.85185472900241           13.4298776893
     4   2  0.00021970134083005078      41.329101809951474           13.4298776893
     5   3  0.00039242820385983565      28.935741616798907           11.8416575997
     6   3  0.00039242820385983565      28.935741616798907           16.1275452197
     7   2  0.00060532522575599374      13.868911292927001           13.4298776893
     8   4  0.00073765907864076078      56.563410043501996      13.808564961699998
     9   2  0.00073765907864076078      56.563410043501996      11.293897032299999
    10   2  0.00073765907864076078      56.563410043501996      15.579784652299999
    11   4  0.00078697594696956719       111.6130531535444      13.808564961699998
    12   2  0.00078697594696956719       111.6130531535444      11.293897032299999
    13   2  0.00078697594696956719       111.6130531535444      15.579784652299999
    14   2  0.00095970280999907985      99.219692960391498           13.4298776893
    15   2    0.028318371219769472      61.252637512571432      5.0635815537999997
    16   4    0.028318371281948699      131.53883552657217      5.2105475048000001
    17   2    0.028318371281948699      131.53883552657217               2.9496935
    18   2    0.028318371281948699      131.53883552657217      7.0523489108000001
    19   3     0.03725836184100921      139.17336630657013           11.8416575997
    20   3     0.03725836184100921      139.17336630657013           16.1275452197
    21   2    0.041184429142440471      68.890549512188656           13.4298776893
    22   1    0.084955114727053055      113.47171452263579      3.0874183849999999
    23   1    0.084955114727053055      113.47171452263579      7.1900737958000001
    24   2    0.084955114789479647      43.185516507542552      5.0635815537999997
    25   4    0.090568566154048916      26.170314969256118      13.808564961699998
    26   2    0.090568566154048916      26.170314969256118      11.293897032299999
    27   2    0.090568566154048916      26.170314969256118      15.579784652299999
    28   2    0.091135840760187159      96.454266312849242           13.4298776893
    29   2     0.14159185714161976      25.118395503481299      5.0635815537999997
    30   4     0.14159185720404657      95.404593517481828      5.2105475048000001
    31   2     0.14159185720404657      95.404593517481828               2.9496935
    32   2     0.14159185720404657      95.404593517481828      7.0523489108000001
    33   2     0.14444604507372902      124.02361100462976           13.4298776893
    34   3      0.1472375631638782      53.745287552156562           11.8416575997
    35   3      0.1472375631638782      53.745287552156562           16.1275452197
    36   2     0.19775624938676709       11.02055966731608           13.4298776893
    37   1     0.19822860064890552       77.33747251354616      3.0874183849999999
    38   1     0.19822860064890552       77.33747251354616      7.1900737958000001
    39   2     0.19822860071157986      7.0512744984521767      5.0635815537999997
    40   4     0.19832352399340802      81.304511010908641      13.808564961699998
    41   2     0.19832352399340802      81.304511010908641      11.293897032299999
    42   2     0.19832352399340802      81.304511010908641      15.579784652299999
    43   3      0.2516337283064472      108.87385570268941           11.8416575997
    44   3      0.2516337283064472      108.87385570268941           16.1275452197
    45   2     0.25442524639659581      38.595532250215925           13.4298776893
    46   2     0.25486534306347114       129.5565495234849      5.0635815537999997
    47   4     0.25486534312589837      59.270351508391741      5.2105475048000001
    48   2     0.25486534312589837      59.270351508391741               2.9496935
    49   2     0.25486534312589837      59.270351508391741      7.0523489108000001
    50   4     0.30494393261998742      136.44320039446964      13.808564961699998
    51   2     0.30494393261998742      136.44320039446964      11.293897032299999
    52   2     0.30494393261998742      136.44320039446964      15.579784652299999
    53   1     0.31150208657100376      41.203230504455284      3.0874183849999999
    54   1     0.31150208657100376      41.203230504455284      7.1900737958000001
    55   2     0.31150208663343132       111.4894285184558      5.0635815537999997
    56   2     0.32126033137239418      66.149172672788694           13.4298776893
    57   3     0.35825413693302438      23.440149057156166           11.8416575997
    58   3     0.35825413693302438      23.440149057156166           16.1275452197
    59   2     0.35882141153916441      93.724100400749137           13.4298776893
    60   2     0.36813882898557221      93.422307514394532      5.0635815537999997
    61   4     0.36813882904774847      23.136109499301554      5.2105475048000001
    62   2     0.36813882904774847      23.136109499301554               2.9496935
    63   2     0.36813882904774847      23.136109499301554      7.0523489108000001
    64   2     0.41213161585270286      121.29344509252935           13.4298776893
    65   4     0.41492313394285213      51.015121640056158      13.808564961699998
    66   2     0.41492313394285213      51.015121640056158      11.293897032299999
    67   2     0.41492313394285213      51.015121640056158      15.579784652299999
    68   1     0.42477557249285469      5.0689884953652724      3.0874183849999999
    69   1     0.42477557249285469      5.0689884953652724      7.1900737958000001
    70   2     0.42477557255528164      75.355186509365666      5.0635815537999997
    71   2     0.46544182016574215      8.2903937552160372           13.4298776893
    72   3     0.46600909477188185      78.574345098809033           11.8416575997
    73   3     0.46600909477188185      78.574345098809033           16.1275452197
    74   2     0.48141231490717162      57.288065505304722      5.0635815537999997
    75   4     0.48141231496985071      127.57426351930503      5.2105475048000001
    76   2     0.48141231496985071      127.57426351930503               2.9496935
    77   2     0.48141231496985071      127.57426351930503      7.0523489108000001
    78   2     0.51875202447878144       35.85973844699641           13.4298776893
    79   4     0.51931929908492169      106.14368979058894      13.808564961699998
    80   2     0.51931929908492169      106.14368979058894      11.293897032299999
    81   2     0.51931929908492169      106.14368979058894      15.579784652299999
    82   1     0.53804905841470607       109.5071425153689      3.0874183849999999
    83   1     0.53804905841470607       109.5071425153689      7.1900737958000001
    84   2     0.53804905847725726      39.220944500275785      5.0635815537999997
    85   3     0.57262950339895957      133.71303448236986           11.8416575997
    86   3     0.57262950339895957      133.71303448236986           16.1275452197
    87   2     0.57542102148861118       63.43471102989627           13.4298776893
    88   2     0.59468580082927303        21.1538234962144      5.0635815537999997
    89   4     0.59468580089170109      91.440021510214905      5.2105475048000001
    90   2     0.59468580089170109      91.440021510214905               2.9496935
    91   2     0.59468580089170109      91.440021510214905      7.0523489108000001
    92   4     0.62593970771149998      20.709983145055748      13.808564961699998
    93   2     0.62593970771149998      20.709983145055748      11.293897032299999
    94   2     0.62593970771149998      20.709983145055748      15.579784652299999
    95   2     0.62650698231763724      90.993934488648975           13.4298776893
    96   1      0.6513225443365549       73.37290050627864      3.0874183849999999
    97   1      0.6513225443365549       73.37290050627864      7.1900737958000001
    98   2     0.65132254439898296      3.0867024911856511      5.0635815537999997
    99   2     0.67981718663118018      118.56327918042943           13.4298776893
   100   3     0.68260870472132751      48.284955727956223           11.8416575997
   101   3     0.68260870472132751      48.284955727956223           16.1275452197
   102   2     0.70795928675112574      125.59197751621802      5.0635815537999997
   103   4     0.70795928681355091      55.305779501124661      5.2105475048000001
   104   2     0.70795928681355091      55.305779501124661               2.9496935
   105   2     0.70795928681355091      55.305779501124661      7.0523489108000001
   106   2     0.73312739094421797         5.5602278431159           13.4298776893
   107   4     0.73369466555035778      75.844179186708374      13.808564961699998
   108   2     0.73369466555035778      75.844179186708374      11.293897032299999
   109   2     0.73369466555035778      75.844179186708374      15.579784652299999
   110   1     0.76459603025865708      37.238658497188503      3.0874183849999999
   111   1     0.76459603025865708      37.238658497188503      7.1900737958000001
   112   2     0.76459603032108625      107.52485651118877      5.0635815537999997
   113   2     0.78643759525825641      33.129572534896241           13.4298776893
   114   3     0.78700486986389717      103.41352387848914           11.8416575997
   115   3     0.78700486986389717      103.41352387848914           16.1275452197
   116   2     0.82123277267322481      89.457735507127765      5.0635815537999997
   117   4     0.82123277273565087      19.171537492034528      5.2105475048000001
   118   2     0.82123277273565087      19.171537492034528               2.9496935
   119   2     0.82123277273565087      19.171537492034528      7.0523489108000001
   120   4     0.84031507417693541      130.98286857026937      13.808564961699998
   121   2     0.84031507417693541      130.98286857026937      11.293897032299999
   122   2     0.84031507417693541      130.98286857026937      15.579784652299999
   123   2     0.84310659226708595      60.704545117796123           13.4298776893
   124   1     0.87786951618050768      1.1044164880981224      3.0874183849999999
   125   1     0.87786951618050768      1.1044164880981224      7.1900737958000001
   126   2     0.87786951624293486      71.390614502098629      5.0635815537999997
   127   3     0.89362527849047424      17.979817232955927           11.8416575997
   128   3     0.89362527849047424      17.979817232955927           16.1275452197
   129   2     0.89419255309661294      88.263768576548742           13.4298776893
   130   2     0.93450625859482583      53.323493498037628      5.0635815537999997
   131   4     0.93450625865750181      123.60969151203814      5.2105475048000001
   132   2     0.93450625865750181      123.60969151203814               2.9496935
   133   2     0.93450625865750181      123.60969151203814      7.0523489108000001
   134   2     0.94750275741015622      115.83311326832907           13.4298776893
   135   4     0.95029427549980394      45.554789815855763      13.808564961699998
   136   2     0.95029427549980394      45.554789815855763      11.293897032299999
   137   2     0.95029427549980394      45.554789815855763      15.579784652299999
   138   1     0.99114300210235895        105.542570508102      3.0874183849999999
   139   1     0.99114300210235895        105.542570508102      7.1900737958000001
   140   2     0.99114300216478546      35.256372493008762      5.0635815537999997
   141   2      1.0008129617236923      2.8300619310157948           13.4298776893
   142   3      1.0013802363288333      73.114013274608766           11.8416575997
   143   3      1.0013802363288333      73.114013274608766           16.1275452197
   144   2      1.0477797445169255      17.189251488947498      5.0635815537999997
   145   4       1.047779744579354       87.47544950294801      5.2105475048000001
   146   2       1.047779744579354       87.47544950294801               2.9496935
   147   2       1.047779744579354       87.47544950294801      7.0523489108000001
   148   2      1.0541231660362327      30.399406622795855           13.4298776893
   149   4      1.0546904406428728      100.68335796638873      13.808564961699998
   150   2      1.0546904406428728      100.68335796638873      11.293897032299999
   151   2      1.0546904406428728      100.68335796638873      15.579784652299999
   152   1      1.1044164880242078       69.40832849901237      3.0874183849999999
   153   1      1.1044164880242078       69.40832849901237      7.1900737958000001
   154   2       1.104416488086885      139.69452651301214      5.0635815537999997
   155   3       1.108000644955913      128.25270265816945           11.8416575997
   156   3       1.108000644955913      128.25270265816945           16.1275452197
   157   2      1.1107921630460613      57.974379205695939           13.4298776893
   158   2      1.1610532304387768      121.62740550895111      5.0635815537999997
   159   4      1.1610532305014531      51.341207493857382      5.2105475048000001
   160   2      1.1610532305014531      51.341207493857382               2.9496935
   161   2      1.1610532305014531      51.341207493857382      7.0523489108000001
   162   4      1.1613108492689503      15.249651320855445      13.808564961699998
   163   2      1.1613108492689503      15.249651320855445      11.293897032299999
   164   2      1.1613108492689503      15.249651320855445      15.579784652299999
   165   2      1.1618781238755902      85.533602664448637           13.4298776893
   166   2      1.2151883281886291      113.10294735622891           13.4298776893
   167   1      1.2176899739463094       33.27408648992148      3.0874183849999999
   168   1      1.2176899739463094       33.27408648992148      7.1900737958000001
   169   2      1.2176899740087352      103.56028450392199      5.0635815537999997
   170   3      1.2179798462787783      42.824623903755644           11.8416575997
   171   3      1.2179798462787783      42.824623903755644           16.1275452197
   172   2      1.2684985325011688    0.099896018915595422           13.4298776893
   173   4      1.2690658071073084      70.383847362508348      13.808564961699998
   174   2      1.2690658071073084      70.383847362508348      11.293897032299999
   175   2      1.2690658071073084      70.383847362508348      15.579784652299999
   176   2      1.2743267163606271      85.493163499860984      5.0635815537999997
   177   4      1.2743267164230541      15.206965484767627      5.2105475048000001
   178   2      1.2743267164230541      15.206965484767627               2.9496935
   179   2      1.2743267164230541      15.206965484767627      7.0523489108000001
   180   2      1.3218087368152069      27.669240710695878           13.4298776893
   181   3      1.3223760114208498      97.953192054288806           11.8416575997
   182   3      1.3223760114208498      97.953192054288806           16.1275452197
   183   1      1.3309634598681599       137.7122405099251      3.0874183849999999
   184   1      1.3309634598681599       137.7122405099251      7.1900737958000001
   185   2      1.3309634599305873      67.426042494831862      5.0635815537999997
   186   4      1.3756862157343874      125.52253674606897      13.808564961699998
   187   2      1.3756862157343874      125.52253674606897      11.293897032299999
   188   2      1.3756862157343874      125.52253674606897      15.579784652299999
   189   2      1.3784777338245373       55.24421329359582           13.4298776893
   190   2      1.3876002022827283      49.358921490770356      5.0635815537999997
   191   4      1.3876002023451539      119.64511950477088      5.2105475048000001
   192   2      1.3876002023451539      119.64511950477088               2.9496935
   193   2      1.3876002023451539      119.64511950477088      7.0523489108000001
   194   3      1.4289964200479257      12.519485408755621           11.8416575997
   195   3      1.4289964200479257      12.519485408755621           16.1275452197
   196   2      1.4295636946540657      82.803436752348404           13.4298776893
   197   1      1.4442369457900119      101.57799850083495      3.0874183849999999
   198   1      1.4442369457900119      101.57799850083495      7.1900737958000001
   199   2      1.4442369458524382      31.291800485741732      5.0635815537999997
   200   2      1.4828738989671053      110.37278144412875           13.4298776893
   201   4      1.4856654170572547      40.094457991655474      13.808564961699998
   202   2      1.4856654170572547      40.094457991655474      11.293897032299999
   203   2      1.4856654170572547      40.094457991655474      15.579784652299999
   204   2      1.5008736882045786      13.224679481680473      5.0635815537999997
   205   4      1.5008736882670055      83.510877495681001      5.2105475048000001
   206   2      1.5008736882670055      83.510877495681001               2.9496935
   207   2      1.5008736882670055      83.510877495681001      7.0523489108000001
   208   2      1.5361841032811467      137.94212613590921           13.4298776893
   209   3      1.5389756213707935      67.663802683435804           11.8416575997
   210   3      1.5389756213707935      67.663802683435804           16.1275452197
   211   1       1.557510431711864      65.443756491744821      3.0874183849999999
   212   1       1.557510431711864      65.443756491744821      7.1900737958000001
   213   2      1.5575104317745416       135.7299545057451      5.0635815537999997
   214   2      1.5894943075936838      24.939074798595488           13.4298776893
   215   4      1.5900615822003237      95.223026142188388      13.808564961699998
   216   2      1.5900615822003237      95.223026142188388      11.293897032299999
   217   2      1.5900615822003237      95.223026142188388      15.579784652299999
   218   2      1.6141471741264299      117.66283350168409      5.0635815537999997
   219   4      1.6141471741888567      47.376635486590857      5.2105475048000001
   220   2      1.6141471741888567      47.376635486590857               2.9496935
   221   2      1.6141471741888567      47.376635486590857      7.0523489108000001
   222   3      1.6433717865133606      122.79237083396912           11.8416575997
   223   3      1.6433717865133606      122.79237083396912           16.1275452197
   224   2       1.646163304603512      52.514047381495637           13.4298776893
   225   1      1.6707839176339627      29.309514482654453      3.0874183849999999
   226   1      1.6707839176339627      29.309514482654453      7.1900737958000001
   227   2      1.6707839176961405      99.595712496655466      5.0635815537999997
   228   4      1.6966819908264008      9.7893194966551409      13.808564961699998
   229   2      1.6966819908264008      9.7893194966551409      11.293897032299999
   230   2      1.6966819908264008      9.7893194966551409      15.579784652299999
   231   2      1.6972492654325406      80.073270840248114           13.4298776893
   232   2      1.7274206600482822      81.528591492593961      5.0635815537999997
   233   4      1.7274206601107065      11.242393477500729      5.2105475048000001
   234   2      1.7274206601107065      11.242393477500729               2.9496935
   235   2      1.7274206601107065      11.242393477500729      7.0523489108000001
   236   3      1.7499921951399413      37.358664188435952           11.8416575997
   237   3      1.7499921951399413      37.358664188435952           16.1275452197
   238   2      1.7505594697460811      107.64261553202851           13.4298776893
   239   1      1.7840574035558165      133.74766850265806      3.0874183849999999
   240   1      1.7840574035558165      133.74766850265806      7.1900737958000001
   241   2      1.7840574036182424      63.461470487564839      5.0635815537999997
   242   2      1.8038696740591185      135.21196022380911           13.4298776893
   243   4      1.8066611921492686      64.933636771335529      13.808564961699998
   244   2      1.8066611921492686      64.933636771335529      11.293897032299999
   245   2      1.8066611921492686      64.933636771335529      15.579784652299999
   246   2      1.8406941459703816      45.394349483503575      5.0635815537999997
   247   4      1.8406941460328083      115.68054749750409      5.2105475048000001
   248   2      1.8406941460328083      115.68054749750409               2.9496935
   249   2      1.8406941460328083      115.68054749750409      7.0523489108000001
   250   2      1.8571798783721589      22.208908886495291           13.4298776893
   251   3      1.8577471529787983      92.492860230088539           11.8416575997
   252   3      1.8577471529787983      92.492860230088539           16.1275452197
   253   1      1.8973308894776653      97.613426493567943      3.0874183849999999
   254   1      1.8973308894776653      97.613426493567943      7.1900737958000001
   255   2      1.8973308895400907      27.327228478474833      5.0635815537999997
   256   4      1.9110573572918366      120.06220492186846      13.808564961699998
   257   2      1.9110573572918366      120.06220492186846      11.293897032299999
   258   2      1.9110573572918366      120.06220492186846      15.579784652299999
   259   2      1.9138488753819882      49.783881469395546           13.4298776893
   260   2      1.9539676318922314      9.2601074744134468      5.0635815537999997
   261   4      1.9539676319544077      79.546305488414205      5.2105475048000001
   262   2      1.9539676319544077      79.546305488414205               2.9496935
   263   2      1.9539676319544077      79.546305488414205      7.0523489108000001
   264   3      1.9643675616053757      7.0591535845554407           11.8416575997
   265   3      1.9643675616053757      7.0591535845554407           16.1275452197
   266   2      1.9649348362115158      77.343104928148136           13.4298776893
   267   1      2.0106043753995162      61.479184484477933      3.0874183849999999
   268   1      2.0106043753995162      61.479184484477933      7.1900737958000001
   269   2      2.0106043754619383      131.76538249847857      5.0635815537999997
   270   4      2.0176777659184157      34.628498276335471      13.808564961699998
   271   2      2.0176777659184157      34.628498276335471      11.293897032299999
   272   2      2.0176777659184157      34.628498276335471      15.579784652299999
   273   2      2.0182450405240555      104.91244961992835           13.4298776893
   274   2      2.0672411178140826      113.69826149441732      5.0635815537999997
   275   4      2.0672411178765087      43.412063479323898      5.2105475048000001
   276   2      2.0672411178765087      43.412063479323898               2.9496935
   277   2      2.0672411178765087      43.412063479323898      7.0523489108000001
   278   2      2.0715552448380961      132.48179431170888           13.4298776893
   279   3      2.0743467629282444      62.203470859235672           11.8416575997
   280   3      2.0743467629282444      62.203470859235672           16.1275452197
   281   1       2.123877861321616      25.344942475387423      3.0874183849999999
   282   1       2.123877861321616      25.344942475387423      7.1900737958000001
   283   2      2.1238778613840434      95.631140489387931      5.0635815537999997
   284   2      2.1248654491511334      19.478742974395185           13.4298776893
   285   4      2.1254327237572728      89.762694317988064      13.808564961699998
   286   2      2.1254327237572728      89.762694317988064      11.293897032299999
   287   2      2.1254327237572728      89.762694317988064      15.579784652299999
   288   3      2.1787429280708142      117.33203900976883           11.8416575997
   289   3      2.1787429280708142      117.33203900976883           16.1275452197
   290   2      2.1805146037359315      77.564019485327066      5.0635815537999997
   291   4      2.1805146037986094      7.2778214702334516      5.2105475048000001
   292   2      2.1805146037986094      7.2778214702334516               2.9496935
   293   2      2.1805146037986094      7.2778214702334516      7.0523489108000001
   294   2       2.181534446160962      47.053715557295298           13.4298776893
   295   4      2.2320531323838519      4.3289876724550549      13.808564961699998
   296   2      2.2320531323838519      4.3289876724550549      11.293897032299999
   297   2      2.2320531323838519      4.3289876724550549      15.579784652299999
   298   2      2.2326204069894908      74.612939016048031           13.4298776893
   299   1      2.2371513472434641      129.78309649539116      3.0874183849999999
   300   1      2.2371513472434641      129.78309649539116      7.1900737958000001
   301   2      2.2371513473058928      59.496898480297816      5.0635815537999997
   302   3      2.2853633366968911      31.898332364235614           11.8416575997
   303   3      2.2853633366968911      31.898332364235614           16.1275452197
   304   2      2.2859306113035314      102.18228370782825           13.4298776893
   305   2      2.2937880896577836      41.429777476236929      5.0635815537999997
   306   4      2.2937880897204592       111.7159754902372      5.2105475048000001
   307   2      2.2937880897204592       111.7159754902372               2.9496935
   308   2      2.2937880897204592       111.7159754902372      7.0523489108000001
   309   2      2.3392408156165678      129.75162839960879           13.4298776893
   310   4       2.342032333706721      59.473304947135247      13.808564961699998
   311   2       2.342032333706721      59.473304947135247      11.293897032299999
   312   2       2.342032333706721      59.473304947135247      15.579784652299999
   313   1      2.3504248331653184       93.64885448630092      3.0874183849999999
   314   1      2.3504248331653184       93.64885448630092      7.1900737958000001
   315   2       2.350424833227744      23.362656471207806      5.0635815537999997
   316   2      2.3925510199296092      16.748577062294984           13.4298776893
   317   3       2.393118294536249        87.0325284058882           11.8416575997
   318   3       2.393118294536249        87.0325284058882           16.1275452197
   319   2      2.4070615755798839      5.2955354671466095      5.0635815537999997
   320   4      2.4070615756423117      75.581733481146941      5.2105475048000001
   321   2      2.4070615756423117      75.581733481146941               2.9496935
   322   2      2.4070615756423117      75.581733481146941      7.0523489108000001
   323   4       2.446428498848789      114.60187309766812      13.808564961699998
   324   2       2.446428498848789      114.60187309766812      11.293897032299999
   325   2       2.446428498848789      114.60187309766812      15.579784652299999
   326   2      2.4492200169394382      44.323549645195179           13.4298776893
   327   1      2.4636983190871673      57.514612477211031      3.0874183849999999
   328   1      2.4636983190871673      57.514612477211031      7.1900737958000001
   329   2      2.4636983191495991      127.80081049121129      5.0635815537999997
   330   3      2.4997387031623273      1.5988217603551982           11.8416575997
   331   3      2.4997387031623273      1.5988217603551982           16.1275452197
   332   2       2.500305977767967      71.882773103947869           13.4298776893
   333   2      2.5203350615017359      109.73368948715029      5.0635815537999997
   334   4      2.5203350615641629      39.447491472056932      5.2105475048000001
   335   2      2.5203350615641629      39.447491472056932               2.9496935
   336   2      2.5203350615641629      39.447491472056932      7.0523489108000001
   337   4      2.5530489074758669      29.168166452134948      13.808564961699998
   338   2      2.5530489074758669      29.168166452134948      11.293897032299999
   339   2      2.5530489074758669      29.168166452134948      15.579784652299999
   340   2      2.5536161820815062      99.452117795728014           13.4298776893
   341   1      2.5769718050090185      21.380370468120905      3.0874183849999999
   342   1      2.5769718050090185      21.380370468120905      7.1900737958000001
   343   2       2.576971805071695      91.666568482120923      5.0635815537999997
   344   2      2.6069263863955432      127.02146248750854           13.4298776893
   345   3      2.6097179044851946      56.743139035035362           11.8416575997
   346   3      2.6097179044851946      56.743139035035362           16.1275452197
   347   2      2.6336085474235866      73.599447478059901      5.0635815537999997
   348   4      2.6336085474860123      3.3132494629669265      5.2105475048000001
   349   2      2.6336085474860123      3.3132494629669265               2.9496935
   350   2      2.6336085474860123      3.3132494629669265      7.0523489108000001
   351   2      2.6602365907080854      14.018411150194817           13.4298776893
   352   4      2.6608038653142279      84.302362493787641      13.808564961699998
   353   2      2.6608038653142279      84.302362493787641      11.293897032299999
   354   2      2.6608038653142279      84.302362493787641      15.579784652299999
   355   1       2.690245290931117      125.81852448812427      3.0874183849999999
   356   1       2.690245290931117      125.81852448812427      7.1900737958000001
   357   2      2.6902452909935461      55.532326473030786      5.0635815537999997