(written by ASE)

26866 atoms
4 atom types

0.0      172.32709806257893  xlo xhi
0.0      172.32709806257893  ylo yhi
0.0      63.177851719700001  zlo zhi

Masses

     1       137.3269999646734 # Ba
     2      15.998999995884349 # O
     3      207.19999994669897 # Pb
     4      47.866999987686484 # Ti

Atoms # atomic

     1   3  1.3061272902211855e-05      80.458729399475558           11.8416575997
     2   3  1.3061272902211855e-05      80.458729399475558           16.1275452197
     3   2  2.9381307056731684e-05      166.66554065558395           13.4298776893
     4   2  7.4927674768737667e-05      16.992988743611814           13.4298776893
     5   2  8.8143921160679784e-05      155.34242584159398           13.4298776893
     6   2  0.00010105022056470694      5.5833494799840286           13.4298776893
     7   4  0.00011737025410907759      91.790160736092574      13.808564961699998
     8   2  0.00011737025410907759      91.790160736092574      11.293897032299999
     9   2  0.00011737025410907759      91.790160736092574      15.579784652299999
    10   3  0.00038475083184085504      103.12990859533599           11.8416575997
    11   3  0.00038475083184085504      103.12990859533599           16.1275452197
    12   4  0.00088718186414646057      69.177197198619453      13.808564961699998
    13   2  0.00088718186414646057      69.177197198619453      11.293897032299999
    14   2  0.00088718186414646057      69.177197198619453      15.579784652299999
    15   2    0.023100147244144331      57.912069013399858      5.0635815537999997
    16   1    0.023100147651824776      144.07561804505895      3.0874183849999999
    17   1    0.023100147651824776      144.07561804505895      7.1900737958000001
    18   3    0.029580878920600271      57.871824290984051           11.8416575997
    19   3    0.029580878920600271      57.871824290984051           16.1275452197
    20   2    0.030379916862991716      144.03369371058835           13.4298776893
    21   4    0.069300441261601634      87.572658010101648      5.2105475048000001
    22   2    0.069300441261601634      87.572658010101648               2.9496935
    23   2    0.069300441261601634      87.572658010101648      7.0523489108000001
    24   2    0.069300441669225943      1.4091089791813567      5.0635815537999997
    25   4    0.073146473746736579      46.561167940899686      13.808564961699998
    26   2    0.073146473746736579      46.561167940899686      11.293897032299999
    27   2    0.073146473746736579      46.561167940899686      15.579784652299999
    28   2    0.073945511690343635      132.72303736050461           13.4298776893
    29   2      0.1155007360179259      117.23324700598751      5.0635815537999997
    30   1     0.11550073642548174      31.069697975067204      3.0874183849999999
    31   1     0.11550073642548174      31.069697975067204      7.1900737958000001
    32   3      0.1167120685728701      35.250511590815925           11.8416575997
    33   3      0.1167120685728701      35.250511590815925           16.1275452197
    34   2     0.11751110651587379      121.41238101042038           13.4298776893
    35   2     0.16107670134200039      110.10172466033616           13.4298776893
    36   4     0.16170103003520597      146.89383600268883      5.2105475048000001
    37   2     0.16170103003520597      146.89383600268883               2.9496935
    38   2     0.16170103003520597      146.89383600268883      7.0523489108000001
    39   2     0.16170103044286144      60.730286971768543      5.0635815537999997
    40   4     0.16187573928622398      23.936496017361957      13.808564961699998
    41   2     0.16187573928622398      23.936496017361957      11.293897032299999
    42   2     0.16187573928622398      23.936496017361957      15.579784652299999
    43   2     0.20464229616875587      98.791068310252399           13.4298776893
    44   3     0.20544133411296933      12.625839667278353           11.8416575997
    45   3     0.20544133411296933      12.625839667278353           16.1275452197
    46   2     0.20790132479135962      4.2273269359957428      5.0635815537999997
    47   1     0.20790132519877982      90.390875967654992      3.0874183849999999
    48   1     0.20790132519877982      90.390875967654992      7.1900737958000001
    49   2     0.24820789099549193      87.480411960168951           13.4298776893
    50   4     0.24900692893848972      1.3151833171942884      13.808564961699998
    51   2     0.24900692893848972      1.3151833171942884      11.293897032299999
    52   2     0.24900692893848972      1.3151833171942884      15.579784652299999
    53   4     0.25410161880866694      33.887915932697695      5.2105475048000001
    54   2     0.25410161880866694      33.887915932697695               2.9496935
    55   2     0.25410161880866694      33.887915932697695      7.0523489108000001
    56   2     0.25410161921607755      120.05146496435633      5.0635815537999997
    57   2     0.29177348582163437      76.169755610085033           13.4298776893
    58   3     0.29257252376462473      162.33162502968977           11.8416575997
    59   3     0.29257252376462473      162.33162502968977           16.1275452197
    60   2     0.30030191356473118      63.548504928582929      5.0635815537999997
    61   1      0.3003019139723187       149.7120539602428      3.0874183849999999
    62   1      0.3003019139723187       149.7120539602428      7.1900737958000001
    63   2     0.33533908064776446      64.859099260001116           13.4298776893
    64   4     0.33613811859075843      151.02096867960555      13.808564961699998
    65   2     0.33613811859075843      151.02096867960555      11.293897032299999
    66   2     0.33613811859075843      151.02096867960555      15.579784652299999
    67   4     0.34650220758222777       93.20909392528435      5.2105475048000001
    68   2     0.34650220758222777       93.20909392528435               2.9496935
    69   2     0.34650220758222777       93.20909392528435      7.0523489108000001
    70   2     0.34650220798985099      7.0455448943645793      5.0635815537999997
    71   2     0.37890467547389184       53.54844290991705           13.4298776893
    72   3     0.37970371341750603      139.71031232952194           11.8416575997
    73   3     0.37970371341750603      139.71031232952194           16.1275452197
    74   2     0.39270250233833165      122.86968292117135      5.0635815537999997
    75   1     0.39270250274580343      36.706133890250349      3.0874183849999999
    76   1     0.39270250274580343      36.706133890250349      7.1900737958000001
    77   2     0.42247027030064205      42.237786559833296           13.4298776893
    78   4     0.42326930824302034      128.39965597943743      13.808564961699998
    79   2     0.42326930824302034      128.39965597943743      11.293897032299999
    80   2     0.42326930824302034      128.39965597943743      15.579784652299999
    81   4     0.43890279635554874        152.530271917872      5.2105475048000001
    82   2     0.43890279635554874        152.530271917872               2.9496935
    83   2     0.43890279635554874        152.530271917872      7.0523489108000001
    84   2     0.43890279676328509      66.366722886951464      5.0635815537999997
    85   3     0.46683490306976527      117.08899962935368           11.8416575997
    86   3     0.46683490306976527      117.08899962935368           16.1275452197
    87   2     0.46763394101399242      30.923770986379328           13.4298776893
    88   2     0.48510309111176642      9.8637628511795779      5.0635815537999997
    89   1     0.48510309151928799      96.027311882838831      3.0874183849999999
    90   1     0.48510309151928799      96.027311882838831      7.1900737958000001
    91   4     0.51040049789591557      105.77834327926962      13.808564961699998
    92   2     0.51040049789591557      105.77834327926962      11.293897032299999
    93   2     0.51040049789591557      105.77834327926962      15.579784652299999
    94   2     0.51119953583951183       19.61311463629557           13.4298776893
    95   4     0.53130338512914166      39.524351847880915      5.2105475048000001
    96   2     0.53130338512914166      39.524351847880915               2.9496935
    97   2     0.53130338512914166      39.524351847880915      7.0523489108000001
    98   2     0.53130338553660972       125.6879008795391      5.0635815537999997
    99   3     0.55396609272326491      94.467686929186002           11.8416575997
   100   3     0.55396609272326491      94.467686929186002           16.1275452197
   101   2     0.55476513066564614      8.3024582862115057           13.4298776893
   102   2     0.57750367988516504      69.184940843767365      5.0635815537999997
   103   1     0.57750368029290466      155.34848987542603      3.0874183849999999
   104   1     0.57750368029290466      155.34848987542603      7.1900737958000001
   105   4     0.59753168754940023      83.157030579102084      13.808564961699998
   106   2     0.59753168754940023      83.157030579102084      11.293897032299999
   107   2     0.59753168754940023      83.157030579102084      15.579784652299999
   108   2     0.59833072549300992      169.31889999870685           13.4298776893
   109   4     0.62370397390274679      98.845529840468714      5.2105475048000001
   110   2     0.62370397390274679      98.845529840468714               2.9496935
   111   2     0.62370397390274679      98.845529840468714      7.0523489108000001
   112   2     0.62370397431017033      12.681980809548412      5.0635815537999997
   113   3     0.64109728237552754      71.846374229018636           11.8416575997
   114   3     0.64109728237552754      71.846374229018636           16.1275452197
   115   2     0.64189632031852772      158.00824364862291           13.4298776893
   116   2     0.66990426865870945      128.50611883635457      5.0635815537999997
   117   1     0.66990426906639089      42.342569805434053      3.0874183849999999
   118   1     0.66990426906639089      42.342569805434053      7.1900737958000001
   119   4     0.68466287720166286       60.53571787893442      13.808564961699998
   120   2     0.68466287720166286       60.53571787893442      11.293897032299999
   121   2     0.68466287720166286       60.53571787893442      15.579784652299999
   122   2     0.68546191514466204      146.69758729853919           13.4298776893
   123   4     0.71610456267612632      158.16670783305545      5.2105475048000001
   124   2     0.71610456267612632      158.16670783305545               2.9496935
   125   2     0.71610456267612632      158.16670783305545      7.0523489108000001
   126   2     0.71610456308387449      72.003158802134976      5.0635815537999997
   127   3     0.72822847202779828       49.22506152885051           11.8416575997
   128   3     0.72822847202779828       49.22506152885051           16.1275452197
   129   2     0.72902750997080734      135.38693094845479           13.4298776893
   130   2     0.76230485743208265      15.500198766363411      5.0635815537999997
   131   1     0.76230485783971358      101.66374779802172      3.0874183849999999
   132   1     0.76230485783971358      101.66374779802172      7.1900737958000001
   133   4     0.77179406685393015      37.914405178766295      13.808564961699998
   134   2     0.77179406685393015      37.914405178766295      11.293897032299999
   135   2     0.77179406685393015      37.914405178766295      15.579784652299999
   136   2      0.7725931047969179      124.07627459837089           13.4298776893
   137   4     0.80850515144968516      45.160787763064754      5.2105475048000001
   138   2     0.80850515144968516      45.160787763064754               2.9496935
   139   2     0.80850515144968516      45.160787763064754      7.0523489108000001
   140   2     0.80850515185713268      131.32433679472339      5.0635815537999997
   141   2     0.81615869962368315      112.76561824828728           13.4298776893
   142   3      0.8169577375672793      26.600389605313246           11.8416575997
   143   3      0.8169577375672793      26.600389605313246           16.1275452197
   144   2     0.85470544620583211      74.821376758950606      5.0635815537999997
   145   1     0.85470544661333858      160.98492579060988      3.0874183849999999
   146   1     0.85470544661333858      160.98492579060988      7.1900737958000001
   147   2     0.85972429445041232      101.45496189820322           13.4298776893
   148   4      0.8605233323940279      15.289733255229027      13.808564961699998
   149   2      0.8605233323940279      15.289733255229027      11.293897032299999
   150   2      0.8605233323940279      15.289733255229027      15.579784652299999
   151   4     0.90090574022316328      104.48196575565194      5.2105475048000001
   152   2     0.90090574022316328      104.48196575565194               2.9496935
   153   2     0.90090574022316328      104.48196575565194      7.0523489108000001
   154   2     0.90090574063068019      18.318416724732245      5.0635815537999997
   155   2     0.90328988927594145      90.144305548119448           13.4298776893
   156   3      0.9040889272201611      3.9790769051451167           11.8416575997
   157   3      0.9040889272201611      3.9790769051451167           16.1275452197
   158   2     0.94685548410268805      78.833649198036014           13.4298776893
   159   2     0.94710603497922563      134.14255475153763      5.0635815537999997
   160   1     0.94710603538693305      47.979005720618098      3.0874183849999999
   161   1     0.94710603538693305      47.979005720618098      7.1900737958000001
   162   4     0.94765452204567591       164.9955186176403      13.808564961699998
   163   2     0.94765452204567591       164.9955186176403      11.293897032299999
   164   2     0.94765452204567591       164.9955186176403      15.579784652299999
   165   2     0.99042107892821374      67.522992847951954           13.4298776893
   166   3     0.99122011687242251      153.68486226755684           11.8416575997
   167   3     0.99122011687242251      153.68486226755684           16.1275452197
   168   4     0.99330632899644822      163.80314374823973      5.2105475048000001
   169   2     0.99330632899644822      163.80314374823973               2.9496935
   170   2     0.99330632899644822      163.80314374823973      7.0523489108000001
   171   2     0.99330632940400665      77.639594717319426      5.0635815537999997
   172   2      1.0339866737549543      56.212336497868037           13.4298776893
   173   4       1.034785711697944      142.37420591747232      13.808564961699998
   174   2       1.034785711697944      142.37420591747232      11.293897032299999
   175   2       1.034785711697944      142.37420591747232      15.579784652299999
   176   2      1.0395066237528234      21.136634681546631      5.0635815537999997
   177   1      1.0395066241602882      107.30018371320506      3.0874183849999999
   178   1      1.0395066241602882      107.30018371320506      7.1900737958000001
   179   2      1.0775522685810852      44.901680147784276           13.4298776893
   180   3      1.0783513065253074      131.06354956738841           11.8416575997
   181   3      1.0783513065253074      131.06354956738841           16.1275452197
   182   4       1.085706917770122      50.797223678247967      5.2105475048000001
   183   2       1.085706917770122      50.797223678247967               2.9496935
   184   2       1.085706917770122      50.797223678247967      7.0523489108000001
   185   2       1.085706918177475      136.96077270990722      5.0635815537999997
   186   2       1.121117863407832      33.591023797699911           13.4298776893
   187   4      1.1219169013508377      119.75289321730421      13.808564961699998
   188   2      1.1219169013508377      119.75289321730421      11.293897032299999
   189   2      1.1219169013508377      119.75289321730421      15.579784652299999
   190   2      1.1319072125263403      80.457812674134431      5.0635815537999997
   191   1      1.1319072129339387      166.62136170579305      3.0874183849999999
   192   1      1.1319072129339387      166.62136170579305      7.1900737958000001
   193   3      1.1654824961769596      108.44223686722074           11.8416575997
   194   3      1.1654824961769596      108.44223686722074           16.1275452197
   195   2      1.1662815341211845      22.277008224246398           13.4298776893
   196   4      1.1781075065436786      110.11840167083577      5.2105475048000001
   197   2      1.1781075065436786      110.11840167083577               2.9496935
   198   2      1.1781075065436786      110.11840167083577      7.0523489108000001
   199   2       1.178107506951114      23.954852639914932      5.0635815537999997
   200   4      1.2090480910037134      97.131580517136683      13.808564961699998
   201   2      1.2090480910037134      97.131580517136683      11.293897032299999
   202   2      1.2090480910037134      97.131580517136683      15.579784652299999
   203   2      1.2098471289467059      10.966351874162333           13.4298776893
   204   2      1.2243078012997506      139.77899066672163      5.0635815537999997
   205   1      1.2243078017074061      53.615441635801616      3.0874183849999999
   206   1      1.2243078017074061      53.615441635801616      7.1900737958000001
   207   3      1.2526136858304575      85.820924167052766           11.8416575997
   208   3      1.2526136858304575      85.820924167052766           16.1275452197
   209   2      1.2534127237734516      171.98279358665721           13.4298776893
   210   4      1.2705080953172847      169.43957966342296      5.2105475048000001
   211   2      1.2705080953172847      169.43957966342296               2.9496935
   212   2      1.2705080953172847      169.43957966342296      7.0523489108000001
   213   2      1.2705080957244423      83.276030632503264      5.0635815537999997
   214   4      1.2961792806559795      74.510267816969019      13.808564961699998
   215   2      1.2961792806559795      74.510267816969019      11.293897032299999
   216   2      1.2961792806559795      74.510267816969019      15.579784652299999
   217   2      1.2969783185995885      160.67213723657363           13.4298776893
   218   2      1.3167083900731416      26.773070596729646      5.0635815537999997
   219   1      1.3167083904808161      112.93661962838912      3.0874183849999999
   220   1      1.3167083904808161      112.93661962838912      7.1900737958000001
   221   3      1.3397448754821069      63.199611466885564           11.8416575997
   222   3      1.3397448754821069      63.199611466885564           16.1275452197
   223   2      1.3405439134251151       149.3614808864894           13.4298776893
   224   4      1.3629086840906277      56.433659593431607      5.2105475048000001
   225   2      1.3629086840906277      56.433659593431607               2.9496935
   226   2      1.3629086840906277      56.433659593431607      7.0523489108000001
   227   2      1.3629086844981564      142.59720862509045      5.0635815537999997
   228   4      1.3833104703088521      51.888955116800879      13.808564961699998
   229   2      1.3833104703088521      51.888955116800879      11.293897032299999
   230   2      1.3833104703088521      51.888955116800879      15.579784652299999
   231   2      1.3841095082524582      138.05082453640594           13.4298776893
   232   2       1.409108978846741      86.094248589317658      5.0635815537999997
   233   1      1.4091089792543694      172.25779762097631      3.0874183849999999
   234   1      1.4091089792543694      172.25779762097631      7.1900737958000001
   235   3      1.4268760651343748      40.578298766717737           11.8416575997
   236   3      1.4268760651343748      40.578298766717737           16.1275452197
   237   2      1.4276751030779926      126.74016818632218           13.4298776893
   238   4      1.4553092728642734      115.75483758601868      5.2105475048000001
   239   2      1.4553092728642734      115.75483758601868               2.9496935
   240   2      1.4553092728642734      115.75483758601868      7.0523489108000001
   241   2      1.4553092732717012      29.591288555098387      5.0635815537999997
   242   2      1.4712406979053447      115.42951183623782           13.4298776893
   243   4      1.4720397358483392      29.264283193263768      13.808564961699998
   244   2      1.4720397358483392      29.264283193263768      11.293897032299999
   245   2      1.4720397358483392      29.264283193263768      15.579784652299999
   246   2      1.5015095676202446      145.41542658190545      5.0635815537999997
   247   1      1.5015095680278683      59.251877550985157      3.0874183849999999
   248   1      1.5015095680278683      59.251877550985157      7.1900737958000001
   249   2      1.5148062927308688      104.11885548615405           13.4298776893
   250   3      1.5156053306744743      17.953626843179553           11.8416575997
   251   3      1.5156053306744743      17.953626843179553           16.1275452197
   252   4      1.5477098616377398      2.7489175160275354      5.2105475048000001
   253   2      1.5477098616377398      2.7489175160275354               2.9496935
   254   2      1.5477098616377398      2.7489175160275354      7.0523489108000001
   255   2      1.5477098620453356      88.912466547686179      5.0635815537999997
   256   2      1.5583718875576031      92.808199136069987           13.4298776893
   257   4       1.559170925500607      6.6429704930954845      13.808564961699998
   258   2       1.559170925500607      6.6429704930954845      11.293897032299999
   259   2       1.559170925500607      6.6429704930954845      15.579784652299999
   260   2      1.5939101563935794      32.409506511914302      5.0635815537999997
   261   1      1.5939101568012819      118.57305554357296      3.0874183849999999
   262   1      1.5939101568012819      118.57305554357296      7.1900737958000001
   263   2      1.6019374823837418      81.497542785986994           13.4298776893
   264   3      1.6027365203267392      167.65941220559114           11.8416575997
   265   3      1.6027365203267392      167.65941220559114           16.1275452197
   266   4      1.6401104504112223      62.070095508614564      5.2105475048000001
   267   2      1.6401104504112223      62.070095508614564               2.9496935
   268   2      1.6401104504112223      62.070095508614564      7.0523489108000001
   269   2      1.6401104508189186      148.23364454027367      5.0635815537999997
   270   2      1.6455030772104868      70.186886435902622           13.4298776893
   271   4        1.64630211515348      156.34875585550691      13.808564961699998
   272   2        1.64630211515348      156.34875585550691      11.293897032299999
   273   2        1.64630211515348      156.34875585550691      15.579784652299999
   274   2      1.6863107451673585      91.730684504501184      5.0635815537999997
   275   1      1.6863107455747988       5.567135473580576      3.0874183849999999
   276   1      1.6863107455747988       5.567135473580576      7.1900737958000001
   277   2       1.689068672036008      58.876230085818712           13.4298776893
   278   3      1.6898677099796284      145.03809950542316           11.8416575997
   279   3      1.6898677099796284      145.03809950542316           16.1275452197
   280   4      1.7325110391845926      121.39127350120282      5.2105475048000001
   281   2      1.7325110391845926      121.39127350120282               2.9496935
   282   2      1.7325110391845926      121.39127350120282      7.0523489108000001
   283   2      1.7325110395922871      35.227724470281757      5.0635815537999997
   284   2      1.7326342668627575      47.565573735734489           13.4298776893
   285   4      1.7334333048057506      133.72744315533907      13.808564961699998
   286   2      1.7334333048057506      133.72744315533907      11.293897032299999
   287   2      1.7334333048057506      133.72744315533907      15.579784652299999
   288   2       1.776199861688277      36.254917385650735           13.4298776893
   289   3      1.7769988996318842      122.41678680525547           11.8416575997
   290   3      1.7769988996318842      122.41678680525547           16.1275452197
   291   2      1.7787113339406857      151.05186249708868      5.0635815537999997
   292   1      1.7787113343482388      64.888313466168995      3.0874183849999999
   293   1      1.7787113343482388      64.888313466168995      7.1900737958000001
   294   4       1.820564494458023      111.10613045517097      13.808564961699998
   295   2       1.820564494458023      111.10613045517097      11.293897032299999
   296   2       1.820564494458023      111.10613045517097      15.579784652299999
   297   2      1.8213635324022415       24.94090181219692           13.4298776893
   298   4      1.8249116279581359      8.3853534312110636      5.2105475048000001
   299   2      1.8249116279581359      8.3853534312110636               2.9496935
   300   2      1.8249116279581359      8.3853534312110636      7.0523489108000001
   301   2       1.824911628365617      94.548902462869563      5.0635815537999997
   302   3      1.8641300892847663      99.795474105087507           11.8416575997
   303   3      1.8641300892847663      99.795474105087507           16.1275452197
   304   2      1.8649291272283768      13.630245462112855           13.4298776893
   305   2      1.8711119227143165      38.045942427096762      5.0635815537999997
   306   1      1.8711119231219209      124.20949145875618      3.0874183849999999
   307   1      1.8711119231219209      124.20949145875618      7.1900737958000001
   308   4      1.9076956841115167      88.484817755003149      13.808564961699998
   309   2      1.9076956841115167      88.484817755003149      11.293897032299999
   310   2      1.9076956841115167      88.484817755003149      15.579784652299999
   311   2      1.9084947220545097      2.3195891120290963           13.4298776893
   312   4      1.9173122167317453      67.706531423798864      5.2105475048000001
   313   2      1.9173122167317453      67.706531423798864               2.9496935
   314   2      1.9173122167317453      67.706531423798864      7.0523489108000001
   315   2      1.9173122171393668       153.8700804554575      5.0635815537999997
   316   3      1.9512612789370334      77.174161404919985           11.8416575997
   317   3      1.9512612789370334      77.174161404919985           16.1275452197
   318   2       1.952060316880037      163.33603082452458           13.4298776893
   319   2      1.9635125114876348      97.367120419684554      5.0635815537999997
   320   1      1.9635125118952328      11.203571388765022      3.0874183849999999
   321   1      1.9635125118952328      11.203571388765022      7.1900737958000001
   322   4      1.9948268737637784      65.863505054835613      13.808564961699998
   323   2      1.9948268737637784      65.863505054835613      11.293897032299999
   324   2      1.9948268737637784      65.863505054835613      15.579784652299999
   325   2      1.9956259117073836      152.02537447444053           13.4298776893
   326   4      2.0097128055051208      127.02770941638569      5.2105475048000001
   327   2      2.0097128055051208      127.02770941638569               2.9496935
   328   2      2.0097128055051208      127.02770941638569      7.0523489108000001
   329   2      2.0097128059124918      40.864160385466356      5.0635815537999997
   330   3      2.0383924685899091      54.552848704752478           11.8416575997
   331   3      2.0383924685899091      54.552848704752478           16.1275452197
   332   2      2.0391915065329145      140.71471812435678           13.4298776893
   333   2      2.0559131002612627      156.68829841227219      5.0635815537999997
   334   1      2.0559131006687172      70.524749381351597      3.0874183849999999
   335   1      2.0559131006687172      70.524749381351597      7.1900737958000001
   336   4      2.0819580634160491      43.242192354667793      13.808564961699998
   337   2      2.0819580634160491      43.242192354667793      11.293897032299999
   338   2      2.0819580634160491      43.242192354667793      15.579784652299999
   339   2      2.0827571013596393      129.40406177427224           13.4298776893
   340   4      2.1021133942789141      14.021789346394591      5.2105475048000001
   341   2      2.1021133942789141      14.021789346394591               2.9496935
   342   2      2.1021133942789141      14.021789346394591      7.0523489108000001
   343   2      2.1021133946861967      100.18533837805323      5.0635815537999997
   344   2      2.1263226961857953      118.09340542418849           13.4298776893
   345   3       2.127121734129402      31.928176781214137           11.8416575997
   346   3       2.127121734129402      31.928176781214137           16.1275452197
   347   2      2.1483136890348855      43.682378342280742      5.0635815537999997
   348   1      2.1483136894421961      129.84592737394001      3.0874183849999999
   349   1      2.1483136894421961      129.84592737394001      7.1900737958000001
   350   2      2.1698882910119206      106.78274907410443           13.4298776893
   351   4      2.1706873289561468       20.61752043113038      13.808564961699998
   352   2      2.1706873289561468       20.61752043113038      11.293897032299999
   353   2      2.1706873289561468       20.61752043113038      15.579784652299999
   354   4      2.1945139830523313      73.342967338982689      5.2105475048000001
   355   2      2.1945139830523313      73.342967338982689               2.9496935
   356   2      2.1945139830523313      73.342967338982689      7.0523489108000001
   357   2      2.1945139834598253      159.50651637064135      5.0635815537999997