(written by ASE)

11179 atoms
4 atom types

0.0      111.15909881942284  xlo xhi
0.0      111.15909881942284  ylo yhi
0.0      63.177851719700001  zlo zhi

Masses

     1       137.3269999646734 # Ba
     2      15.998999995884349 # O
     3      207.19999994669897 # Pb
     4      47.866999987686484 # Ti

Atoms # atomic

     1   2  9.2806301792219712e-11      41.684662056899505      5.0635815537999997
     2   2  9.2806662524421095e-11      97.264211466610902      5.0635815537999997
     3   4  3.4755408156104219e-06      65.516046604119921      13.808564961699998
     4   2  3.4755408156104219e-06      65.516046604119921      11.293897032299999
     5   2  3.4755408156104219e-06      65.516046604119921      15.579784652299999
     6   2  2.5881701945232342e-05      101.14187223431476           13.4298776893
     7   2   5.826914138285547e-05      9.9704337734986641           13.4298776893
     8   3  8.0675302109477188e-05      45.596259403693374           11.8416575997
     9   3  8.0675302109477188e-05      45.596259403693374           16.1275452197
    10   2    0.034789469668055059      29.985027739894015           13.4298776893
    11   3    0.036065406017518391      85.563537026720454           11.8416575997
    12   3    0.036065406017518391      85.563537026720454           16.1275452197
    13   2     0.10202965031274158      49.956130283196828           13.4298776893
    14   4     0.10330558666270159      105.53463957002445      13.808564961699998
    15   2     0.10330558666270159      105.53463957002445      11.293897032299999
    16   2     0.10330558666270159      105.53463957002445      15.579784652299999
    17   1     0.14324626094489581      3.1514177498484752      3.0874183849999999
    18   1     0.14324626094489581      3.1514177498484752      7.1900737958000001
    19   1     0.14324626094489562      58.730967159559889      3.0874183849999999
    20   1     0.14324626094489562      58.730967159559889      7.1900737958000001
    21   4     0.14324626165554771      30.941192455020015      5.2105475048000001
    22   2     0.14324626165554771      30.941192455020015               2.9496935
    23   2     0.14324626165554771      30.941192455020015      7.0523489108000001
    24   4      0.1432462616555443       86.52074186473132      5.2105475048000001
    25   2      0.1432462616555443       86.52074186473132               2.9496935
    26   2      0.1432462616555443       86.52074186473132      7.0523489108000001
    27   3     0.17054576730748977       14.34664329390484           11.8416575997
    28   3     0.17054576730748977       14.34664329390484           16.1275452197
    29   2     0.17182170365695423      69.925152580732075           13.4298776893
    30   4     0.24732807377513685       34.29297662603161      13.808564961699998
    31   2     0.24732807377513685       34.29297662603161      11.293897032299999
    32   2     0.24732807377513685       34.29297662603161      15.579784652299999
    33   2     0.24860401012498623      89.871485912859228           13.4298776893
    34   2     0.28649252250744378      47.987497557680506      5.0635815537999997
    35   2     0.28649252250743606      103.56704696739202      5.0635815537999997
    36   2     0.28649252282337467      20.197722852114143      5.0635815537999997
    37   2     0.28649252282337839       75.77727226182536      5.0635815537999997
    38   3     0.30502612859707001      54.288848380511268           11.8416575997
    39   3     0.30502612859707001      54.288848380511268           16.1275452197
    40   2     0.30630206494702694      109.86735766733889           13.4298776893
    41   2     0.37354224559161742      18.679361391219274           13.4298776893
    42   4     0.37481818194118344      74.257870678046118      13.808564961699998
    43   2     0.37481818194118344      74.257870678046118      11.293897032299999
    44   2     0.37481818194118344      74.257870678046118      15.579784652299999
    45   1     0.42973878367526747      37.244027954774531      3.0874183849999999
    46   1     0.42973878367526747      37.244027954774531      7.1900737958000001
    47   1      0.4297387836752678      92.823577364485928      3.0874183849999999
    48   1      0.4297387836752678      92.823577364485928      7.1900737958000001
    49   4     0.42973878438572166      9.4542532502347516      5.2105475048000001
    50   2     0.42973878438572166      9.4542532502347516               2.9496935
    51   2     0.42973878438572166      9.4542532502347516      7.0523489108000001
    52   4     0.42973878438572355      65.033802659946161      5.2105475048000001
    53   2     0.42973878438572355      65.033802659946161               2.9496935
    54   2     0.42973878438572355      65.033802659946161      7.0523489108000001
    55   2     0.44078242623670316      38.650463934522882           13.4298776893
    56   3     0.44205836258646014      94.228973221350117           11.8416575997
    57   3     0.44205836258646014      94.228973221350117           16.1275452197
    58   2      0.5426959836113977      58.533834115824263           13.4298776893
    59   4     0.54397191996086025      2.9532445832286633      13.808564961699998
    60   2     0.54397191996086025      2.9532445832286633      11.293897032299999
    61   2     0.54397191996086025      2.9532445832286633      15.579784652299999
    62   2     0.57298504523801019      26.500558352894945      5.0635815537999997
    63   2     0.57298504523800664      82.080107762606545      5.0635815537999997
    64   2     0.57298504555374452      54.290333057040186      5.0635815537999997
    65   2     0.57298504555394481      109.86988246675142      5.0635815537999997
    66   3     0.57653872387604088      23.012079488533701           11.8416575997
    67   3     0.57653872387604088      23.012079488533701           16.1275452197
    68   2     0.59151727758519601      78.570923309583335           13.4298776893
    69   4     0.64377890452083075      42.983182031837309      13.808564961699998
    70   2     0.64377890452083075      42.983182031837309      11.293897032299999
    71   2     0.64377890452083075      42.983182031837309      15.579784652299999
    72   2     0.64505484087029241      98.561691318663748           13.4298776893
    73   3     0.71101908516571877      62.954284575140527           11.8416575997
    74   3     0.71101908516571877      62.954284575140527           16.1275452197
    75   2     0.71229502151557622      7.3736950425449255           13.4298776893
    76   1     0.71623130640583677      15.757088749989165      3.0874183849999999
    77   1     0.71623130640583677      15.757088749989165      7.1900737958000001
    78   1     0.71623130640583266      71.336638159700371      3.0874183849999999
    79   1     0.71623130640583266      71.336638159700371      7.1900737958000001
    80   4     0.71623130711629024      99.126412864872222      5.2105475048000001
    81   2     0.71623130711629024      99.126412864872222               2.9496935
    82   2     0.71623130711629024      99.126412864872222      7.0523489108000001
    83   4     0.71623130711648664      43.546863455160207      5.2105475048000001
    84   2     0.71623130711648664      43.546863455160207               2.9496935
    85   2     0.71623130711648664      43.546863455160207      7.0523489108000001
    86   2     0.77953520216016681      27.344797585848138           13.4298776893
    87   4     0.78081113851001904      82.923306872675354      13.808564961699998
    88   2     0.78081113851001904      82.923306872675354      11.293897032299999
    89   2     0.78081113851001904      82.923306872675354      15.579784652299999
    90   2     0.85329400899744468      47.297843282211161           13.4298776893
    91   3     0.85409831841614259      102.88098468750647           11.8416575997
    92   3     0.85409831841614259      102.88098468750647           16.1275452197
    93   2     0.85947756796838115      5.0136191481097745      5.0635815537999997
    94   2     0.85947756796857477      60.593168557820988      5.0635815537999997
    95   2     0.85947756828411825      32.803393852254828      5.0635815537999997
    96   2     0.85947756828411359      88.382943261966233      5.0635815537999997
    97   4     0.91529149979970292      11.706413139859357      13.808564961699998
    98   2     0.91529149979970292      11.706413139859357      11.293897032299999
    99   2     0.91529149979970292      11.706413139859357      15.579784652299999
   100   2     0.91656743614916647      67.284922426686194           13.4298776893
   101   3     0.98253168044459094      31.677515683162962           11.8416575997
   102   3     0.98253168044459094      31.677515683162962           16.1275452197
   103   2     0.98380761679425177      87.256024969989411           13.4298776893
   104   1      1.0027238291360137      105.42924836462684      3.0874183849999999
   105   1      1.0027238291360137      105.42924836462684      7.1900737958000001
   106   1      1.0027238291362057      49.849698954915205      3.0874183849999999
   107   1      1.0027238291362057      49.849698954915205      7.1900737958000001
   108   4      1.0027238298468613      22.059924250375445      5.2105475048000001
   109   2      1.0027238298468613      22.059924250375445               2.9496935
   110   2      1.0027238298468613      22.059924250375445      7.0523489108000001
   111   4      1.0027238298468579      77.639473660086665      5.2105475048000001
   112   2      1.0027238298468579      77.639473660086665               2.9496935
   113   2      1.0027238298468579      77.639473660086665      7.0523489108000001
   114   4      1.0497718610894784      51.648618226465778      13.808564961699998
   115   2      1.0497718610894784      51.648618226465778      11.293897032299999
   116   2      1.0497718610894784      51.648618226465778      15.579784652299999
   117   2      1.0510477974392338       107.2271275132934           13.4298776893
   118   2      1.1459700906987502      94.685778762747347      5.0635815537999997
   119   2      1.1459700906989507      39.106229353035431      5.0635815537999997
   120   2      1.1459700910146866      11.316454647469618      5.0635815537999997
   121   2      1.1459700910146886      66.896004057180974      5.0635815537999997
   122   3      1.1481902919025526      71.543332890471731           11.8416575997
   123   3      1.1481902919025526      71.543332890471731           16.1275452197
   124   2      1.1494662282520154      15.962743357875922           13.4298776893
   125   2      1.1855281587289159        36.0102337804774           13.4298776893
   126   4      1.1868040950784795      91.588743067303838      13.808564961699998
   127   2      1.1868040950784795      91.588743067303838      11.293897032299999
   128   2      1.1868040950784795      91.588743067303838      15.579784652299999
   129   2      1.2527683393738056      55.981336323780603           13.4298776893
   130   3      1.2540442757233656     0.40074679118500928           11.8416575997
   131   3      1.2540442757233656     0.40074679118500928           16.1275452197
   132   1      1.2892163518665778      28.362759750129854      3.0874183849999999
   133   1      1.2892163518665778      28.362759750129854      7.1900737958000001
   134   1      1.2892163518665796      83.942309159841471      3.0874183849999999
   135   1      1.2892163518665796      83.942309159841471      7.1900737958000001
   136   4      1.2892163525774287     0.57298504559007801      5.2105475048000001
   137   2      1.2892163525774287     0.57298504559007801               2.9496935
   138   2      1.2892163525774287     0.57298504559007801      7.0523489108000001
   139   4      1.2892163525774307      56.152534455301293      5.2105475048000001
   140   2      1.2892163525774307      56.152534455301293               2.9496935
   141   2      1.2892163525774307      56.152534455301293      7.0523489108000001
   142   4      1.3212844563683523      20.371849334488221      13.808564961699998
   143   2      1.3212844563683523      20.371849334488221      11.293897032299999
   144   2      1.3212844563683523      20.371849334488221      15.579784652299999
   145   2      1.3225603927177125      75.950358621315061           13.4298776893
   146   3       1.388524637012946      40.342951877791435           11.8416575997
   147   3       1.388524637012946      40.342951877791435           16.1275452197
   148   2      1.3898005733628036      95.921461164618663           13.4298776893
   149   2      1.4324626134293212      17.619290148250563      5.0635815537999997
   150   2      1.4324626134293204      73.198839557961875      5.0635815537999997
   151   2      1.4324626137452539      45.409064852395517      5.0635815537999997
   152   2      1.4324626137452596      100.98861426210694      5.0635815537999997
   153   2      1.4575123809388402      4.7288327700313593           13.4298776893
   154   4      1.4587883172884013      60.307342056858595      13.808564961699998
   155   2      1.4587883172884013      60.307342056858595      11.293897032299999
   156   2      1.4587883172884013      60.307342056858595      15.579784652299999
   157   2       1.524280934652676      24.704567431803046           13.4298776893
   158   3      1.5255568710021434      80.283076718629886           11.8416575997
   159   3      1.5255568710021434      80.283076718629886           16.1275452197
   160   1      1.5757088745971481      6.8758205453444896      3.0874183849999999
   161   1      1.5757088745971481      6.8758205453444896      7.1900737958000001
   162   1      1.5757088745971488      62.455369955056106      3.0874183849999999
   163   1      1.5757088745971488      62.455369955056106      7.1900737958000001
   164   4      1.5757088753077988      34.665595250516127      5.2105475048000001
   165   2      1.5757088753077988      34.665595250516127               2.9496935
   166   2      1.5757088753077988      34.665595250516127      7.0523489108000001
   167   4      1.5757088753079926      90.245144660227155      5.2105475048000001
   168   2      1.5757088753079926      90.245144660227155               2.9496935
   169   2      1.5757088753079926      90.245144660227155      7.0523489108000001
   170   2      1.5915211152972679       44.67566997510626           13.4298776893
   171   4      1.5927970516472287      100.25417926193309      13.808564961699998
   172   2      1.5927970516472287      100.25417926193309      11.293897032299999
   173   2      1.5927970516472287      100.25417926193309      15.579784652299999
   174   2      1.6587612959424554      64.646772518409477           13.4298776893
   175   3      1.6600372322921129      9.0661829858138727           11.8416575997
   176   3      1.6600372322921129      9.0661829858138727           16.1275452197
   177   2      1.7189551361598931      51.711900353176517      5.0635815537999997
   178   2      1.7189551361598938      107.29144976288794      5.0635815537999997
   179   2      1.7189551364754307      79.501675057321563      5.0635815537999997
   180   2      1.7189551364756257      23.922125647610155      5.0635815537999997
   181   2      1.7541562271246613      84.548199546651347           13.4298776893
   182   4      1.7549605365435677      28.972242132523476      13.808564961699998
   183   2      1.7549605365435677      28.972242132523476      11.293897032299999
   184   2      1.7549605365435677      28.972242132523476      15.579784652299999
   185   3      1.7945175935814937      49.008388072420296           11.8416575997
   186   3      1.7945175935814937      49.008388072420296           16.1275452197
   187   2      1.7957935299313528      104.58689735924753           13.4298776893
   188   1      1.8622013973277167      40.968430750270535      3.0874183849999999
   189   1      1.8622013973277167      40.968430750270535      7.1900737958000001
   190   1      1.8622013973277207      96.547980159981961      3.0874183849999999
   191   1      1.8622013973277207      96.547980159981961      7.1900737958000001
   192   4      1.8622013980383689      13.178656045730865      5.2105475048000001
   193   2      1.8622013980383689      13.178656045730865               2.9496935
   194   2      1.8622013980383689      13.178656045730865      7.0523489108000001
   195   4      1.8622013980383678      68.758205455442365      5.2105475048000001
   196   2      1.8622013980383678      68.758205455442365               2.9496935
   197   2      1.8622013980383678      68.758205455442365      7.0523489108000001
   198   2      1.8630337105761421      13.398901083127514           13.4298776893
   199   4       1.864309646926096      68.977410369955535      13.808564961699998
   200   2       1.864309646926096      68.977410369955535      11.293897032299999
   201   2       1.864309646926096      68.977410369955535      15.579784652299999
   202   2      1.9302738912211281      33.370003626431519           13.4298776893
   203   3      1.9315498275709839      88.948512913258753           11.8416575997
   204   3      1.9315498275709839      88.948512913258753           16.1275452197
   205   2      1.9975140718660178      53.341106169734729           13.4298776893
   206   4      1.9987900082157715      108.91961545656197      13.808564961699998
   207   2      1.9987900082157715      108.91961545656197      11.293897032299999
   208   2      1.9987900082157715      108.91961545656197      15.579784652299999
   209   2      2.0054476588900632      30.224961148391547      5.0635815537999997
   210   2      2.0054476588900663      85.804510558102763      5.0635815537999997
   211   2       2.005447659205998      2.4351864428249899      5.0635815537999997
   212   2      2.0054476592061992      58.014735852536425      5.0635815537999997
   213   3      2.0660301888606636      17.731619180442735           11.8416575997
   214   3      2.0660301888606636      17.731619180442735           16.1275452197
   215   2      2.0673061252100271      73.310128467269564           13.4298776893
   216   4       2.133270369505452      37.702721723746343      13.808564961699998
   217   2       2.133270369505452      37.702721723746343      11.293897032299999
   218   2       2.133270369505452      37.702721723746343      15.579784652299999
   219   2      2.1345463058552125      93.281231010572768           13.4298776893
   220   1      2.1486939200578923      75.061040955196589      3.0874183849999999
   221   1      2.1486939200578923      75.061040955196589      7.1900737958000001
   222   1      2.1486939200581867      19.481491545485177      3.0874183849999999
   223   1      2.1486939200581867      19.481491545485177      7.1900737958000001
   224   4      2.1486939207687423      47.271266250656822      5.2105475048000001
   225   2      2.1486939207687423      47.271266250656822               2.9496935
   226   2      2.1486939207687423      47.271266250656822      7.0523489108000001
   227   4      2.1486939207687428      102.85081566036823      5.2105475048000001
   228   2      2.1486939207687428      102.85081566036823               2.9496935
   229   2      2.1486939207687428      102.85081566036823      7.0523489108000001
   230   3      2.2005105501503448      57.673824267049561           11.8416575997
   231   3      2.2005105501503448      57.673824267049561           16.1275452197
   232   2         2.2017864865001      2.0932347344535618           13.4298776893
   233   2      2.2690266671447912      22.064337277757172           13.4298776893
   234   4      2.2703026034945495      77.642846564584005      13.808564961699998
   235   2      2.2703026034945495      77.642846564584005      11.293897032299999
   236   2      2.2703026034945495      77.642846564584005      15.579784652299999
   237   2       2.291940181620634      8.7380219436059861      5.0635815537999997
   238   2      2.2919401816206317      64.317571353317405      5.0635815537999997
   239   2      2.2919401819365679      36.527796647750847      5.0635815537999997
   240   2      2.2919401819365666      92.107346057462266      5.0635815537999997
   241   2      2.3583745990661584      41.979189034471545           13.4298776893
   242   3      2.3652259077458098      97.548905711294083           11.8416575997
   243   3      2.3652259077458098      97.548905711294083           16.1275452197
   244   2      2.4035070284347633      62.006542364363987           13.4298776893
   245   4      2.4047829647842276      6.4259528317679937      13.808564961699998
   246   2      2.4047829647842276      6.4259528317679937      11.293897032299999
   247   2      2.4047829647842276      6.4259528317679937      15.579784652299999
   248   1      2.4351864427884595      109.15365116012282      3.0874183849999999
   249   1      2.4351864427884595      109.15365116012282      7.1900737958000001
   250   1      2.4351864427886563      53.574101750411423      3.0874183849999999
   251   1      2.4351864427886563      53.574101750411423      7.1900737958000001
   252   4      2.4351864434989126      25.784327045871649      5.2105475048000001
   253   2      2.4351864434989126      25.784327045871649               2.9496935
   254   2      2.4351864434989126      25.784327045871649      7.0523489108000001
   255   4      2.4351864434993109       81.36387645558267      5.2105475048000001
   256   2      2.4351864434993109       81.36387645558267               2.9496935
   257   2      2.4351864434993109       81.36387645558267      7.0523489108000001
   258   3       2.472023145429215      26.397055375071599           11.8416575997
   259   3       2.472023145429215      26.397055375071599           16.1275452197
   260   2      2.4732990817787766      81.975564661898844           13.4298776893
   261   4      2.5392633260739057      46.368157918374813      13.808564961699998
   262   2      2.5392633260739057      46.368157918374813      11.293897032299999
   263   2      2.5392633260739057      46.368157918374813      15.579784652299999
   264   2      2.5405392624237613      101.94666720520203           13.4298776893
   265   2      2.5784327043512052      42.830632148531848      5.0635815537999997
   266   2      2.5784327043511972      98.410181558243252      5.0635815537999997
   267   2      2.5784327046671365       15.04085744296548      5.0635815537999997
   268   2      2.5784327046671369      70.620406852677093      5.0635815537999997
   269   2      2.6077794430686505      10.758670929082427           13.4298776893
   270   3      2.6090553794183102      66.337180215910053           11.8416575997
   271   3      2.6090553794183102      66.337180215910053           16.1275452197
   272   2      2.6750196237136374      30.729773472386423           13.4298776893
   273   4      2.6762955600631027      86.308282759212872      13.808564961699998
   274   2      2.6762955600631027      86.308282759212872      11.293897032299999
   275   2      2.6762955600631027      86.308282759212872      15.579784652299999
   276   1       2.721678965519029      32.087162545626164      3.0874183849999999
   277   1       2.721678965519029      32.087162545626164      7.1900737958000001
   278   1      2.7216789655190325       87.66671195533749      3.0874183849999999
   279   1      2.7216789655190325       87.66671195533749      7.1900737958000001
   280   4      2.7216789662294807      59.876937250797695      5.2105475048000001
   281   2      2.7216789662294807      59.876937250797695               2.9496935
   282   2      2.7216789662294807      59.876937250797695      7.0523489108000001
   283   4      2.7216789662298781       4.297387841086092      5.2105475048000001
   284   2      2.7216789662298781       4.297387841086092               2.9496935
   285   2      2.7216789662298781       4.297387841086092      7.0523489108000001
   286   2      2.7422598043582274       50.70087601568963           13.4298776893
   287   3      2.7435357407081797      106.27938530251647           11.8416575997
   288   3      2.7435357407081797      106.27938530251647           16.1275452197
   289   4      2.8107759213527772      15.091389026396858      13.808564961699998
   290   2      2.8107759213527772      15.091389026396858      11.293897032299999
   291   2      2.8107759213527772      15.091389026396858      15.579784652299999
   292   2      2.8120518577023388      70.669898313224095           13.4298776893
   293   2       2.864925227081772      21.343692943746479      5.0635815537999997
   294   2      2.8649252270817733      76.923242353457894      5.0635815537999997
   295   2      2.8649252273973107      104.71301705760322      5.0635815537999997
   296   2      2.8649252273975088      49.133467647891734      5.0635815537999997
   297   3       2.878016101997765      35.062491569700853           11.8416575997
   298   3       2.878016101997765      35.062491569700853           16.1275452197
   299   2      2.8792920383474239      90.641000856527299           13.4298776893
   300   4      2.9643405342884641       54.98405569065099      13.808564961699998
   301   2      2.9643405342884641       54.98405569065099      11.293897032299999
   302   2      2.9643405342884641       54.98405569065099      15.579784652299999
   303   2      2.9651448437069794       110.5671970959462           13.4298776893
   304   1       3.008171488249598      10.600223340840701      3.0874183849999999
   305   1       3.008171488249598      10.600223340840701      7.1900737958000001
   306   1      3.0081714882495971      66.179772750551919      3.0874183849999999
   307   1      3.0081714882495971      66.179772750551919      7.1900737958000001
   308   4      3.0081714889600519      38.389998046012344      5.2105475048000001
   309   2      3.0081714889600519      38.389998046012344               2.9496935
   310   2      3.0081714889600519      38.389998046012344      7.0523489108000001
   311   4      3.0081714889600577       93.96954745572377      5.2105475048000001
   312   2      3.0081714889600577       93.96954745572377               2.9496935
   313   2      3.0081714889600577       93.96954745572377      7.0523489108000001
   314   2      3.0137723996369057      19.424107123711288           13.4298776893
   315   3      3.0150483359868598       75.00261641053892           11.8416575997
   316   3      3.0150483359868598       75.00261641053892           16.1275452197
   317   2      3.0810125802821866      39.395209667015287           13.4298776893
   318   4      3.0822885166318446      94.973718953842109      13.808564961699998
   319   2      3.0822885166318446      94.973718953842109      11.293897032299999
   320   2      3.0822885166318446      94.973718953842109      15.579784652299999
   321   2      3.1482527609270745      59.366312210318505           13.4298776893
   322   3      3.1495286972764402       3.785722677722509           11.8416575997
   323   3      3.1495286972764402       3.785722677722509           16.1275452197
   324   2       3.151417749812246      111.01585255838394      5.0635815537999997
   325   2      3.1514177498123392      55.436303148672529      5.0635815537999997
   326   2      3.1514177501278788      27.646528443106366      5.0635815537999997
   327   2      3.1514177501278802      83.226077852817582      5.0635815537999997
   328   4      3.2167688779214254      23.756825221025718      13.808564961699998
   329   2      3.2167688779214254      23.756825221025718      11.293897032299999
   330   2      3.2167688779214254      23.756825221025718      15.579784652299999
   331   2      3.2180448142708884      79.335334507852949           13.4298776893
   332   3      3.2840090585660171      43.727927764328925           11.8416575997
   333   3      3.2840090585660171      43.727927764328925           16.1275452197
   334   2      3.2852849949162768      99.306437051156564           13.4298776893
   335   1      3.2946640109799694      44.692833545766945      3.0874183849999999
   336   1      3.2946640109799694      44.692833545766945      7.1900737958000001
   337   1      3.2946640109799703      100.27238295547816      3.0874183849999999
   338   1      3.2946640109799703      100.27238295547816      7.1900737958000001
   339   4      3.2946640116906214       16.90305884122678      5.2105475048000001
   340   2      3.2946640116906214       16.90305884122678               2.9496935
   341   2      3.2946640116906214       16.90305884122678      7.0523489108000001
   342   4      3.2946640116906236      72.482608250938384      5.2105475048000001
   343   2      3.2946640116906236      72.482608250938384               2.9496935
   344   2      3.2946640116906236      72.482608250938384      7.0523489108000001
   345   4      3.3512492392113025      63.699030307632931      13.808564961699998
   346   2      3.3512492392113025      63.699030307632931      11.293897032299999
   347   2      3.3512492392113025      63.699030307632931      15.579784652299999
   348   2       3.352525175560765      8.1184407750365466           13.4298776893
   349   2      3.4197653562058501       28.08954331834094           13.4298776893
   350   3      3.4210412925554103      83.668052605167375           11.8416575997
   351   3      3.4210412925554103      83.668052605167375           16.1275452197
   352   2      3.4379102725425135      33.949363943887455      5.0635815537999997
   353   2      3.4379102725427129      89.528913353598767      5.0635815537999997
   354   2       3.437910272858447      6.1595892383210034      5.0635815537999997
   355   2       3.437910272858447      61.739138648032409      5.0635815537999997
   356   2      3.4870055368505422      48.060645861644154           13.4298776893
   357   4      3.4882814732003937      103.63915514847099      13.808564961699998