(written by ASE)

16667 atoms
4 atom types

0.0      135.73155859364851  xlo xhi
0.0      135.73155859364851  ylo yhi
0.0      63.177851719700001  zlo zhi

Masses

     1       137.3269999646734 # Ba
     2      15.998999995884349 # O
     3      207.19999994669897 # Pb
     4      47.866999987686484 # Ti

Atoms # atomic

     1   3  4.3651231861579183e-06      130.02697628570058           11.8416575997
     2   3  4.3651231861579183e-06      130.02697628570058           16.1275452197
     3   4  1.2115270326978125e-05      118.74327884914086      13.808564961699998
     4   2  1.2115270326978125e-05      118.74327884914086      11.293897032299999
     5   2  1.2115270326978125e-05      118.74327884914086      15.579784652299999
     6   4  2.7615564849659354e-05       96.17588397602178      13.808564961699998
     7   2  2.7615564849659354e-05       96.17588397602178      11.293897032299999
     8   2  2.7615564849659354e-05       96.17588397602178      15.579784652299999
     9   4  4.4095958483746037e-05      73.483021923566596      13.808564961699998
    10   2  4.4095958483746037e-05      73.483021923566596      11.293897032299999
    11   2  4.4095958483746037e-05      73.483021923566596      15.579784652299999
    12   3  5.1846105744638141e-05      62.199324487006685           11.8416575997
    13   3  5.1846105744638141e-05      62.199324487006685           16.1275452197
    14   4  5.9596252945164641e-05      50.915627050447128      13.808564961699998
    15   2  5.9596252945164641e-05      50.915627050447128      11.293897032299999
    16   2  5.9596252945164641e-05      50.915627050447128      15.579784652299999
    17   4   7.607664651931929e-05      28.222764997991465      13.808564961699998
    18   2   7.607664651931929e-05      28.222764997991465      11.293897032299999
    19   2   7.607664651931929e-05      28.222764997991465      15.579784652299999
    20   3  8.3826793780161142e-05      16.939067561431973           11.8416575997
    21   3  8.3826793780161142e-05      16.939067561431973           16.1275452197
    22   4   9.157694108625266e-05      5.6553701248724719      13.808564961699998
    23   2   9.157694108625266e-05      5.6553701248724719      11.293897032299999
    24   2   9.157694108625266e-05      5.6553701248724719      15.579784652299999
    25   3  0.00013130777636811524      84.842974356386748           11.8416575997
    26   3  0.00013130777636811524      84.842974356386748           16.1275452197
    27   3  0.00025923052884258664       39.53350524773667           11.8416575997
    28   3  0.00025923052884258664       39.53350524773667           16.1275452197
    29   3   0.0018359039449742372      107.40282018950157           11.8416575997
    30   3   0.0018359039449742372      107.40282018950157           16.1275452197
    31   4    0.029328340000274178      34.930053216081205      5.2105475048000001
    32   2    0.029328340000274178      34.930053216081205               2.9496935
    33   2    0.029328340000274178      34.930053216081205      7.0523489108000001
    34   2    0.029328340549879851      102.79583251288932      5.0635815537999997
    35   2    0.087985020480265533       36.92438035240621      5.0635815537999997
    36   1    0.087985021029991284      104.79015964921456      3.0874183849999999
    37   1    0.087985021029991284      104.79015964921456      7.1900737958000001
    38   4     0.14664170092831016      38.918707487631764      5.2105475048000001
    39   2     0.14664170092831016      38.918707487631764               2.9496935
    40   2     0.14664170092831016      38.918707487631764      7.0523489108000001
    41   2     0.14664170147779476      106.78448678444006      5.0635815537999997
    42   2     0.20529838140818077      40.913034623957017      5.0635815537999997
    43   1     0.20529838195814767      108.77881392076488      3.0874183849999999
    44   1     0.20529838195814767      108.77881392076488      7.1900737958000001
    45   4     0.26395506185622541      42.907361759182329      5.2105475048000001
    46   2     0.26395506185622541      42.907361759182329               2.9496935
    47   2     0.26395506185622541      42.907361759182329      7.0523489108000001
    48   2     0.26395506240571054      110.77314105599068      5.0635815537999997
    49   2     0.27135469420772812      55.266020989722918           13.4298776893
    50   2     0.27153784808968939      66.576761239467885           13.4298776893
    51   2     0.27172100197201376       77.88750148921288           13.4298776893
    52   2     0.27208730973629802       100.5089819887028           13.4298776893
    53   2     0.27227046361825996      111.81972223844777           13.4298776893
    54   2       0.272342175142195      10.015510950738387           13.4298776893
    55   2     0.27245361750058322      123.13046248819225           13.4298776893
    56   2     0.27263677138266501      134.44120273793769           13.4298776893
    57   2     0.27270848290635952      32.636991450228813           13.4298776893
    58   2     0.27289163678832123      43.947731699973779           13.4298776893
    59   2     0.28609519669838751      21.238816067262928           13.4298776893
    60   2     0.28671636986796672      89.098384122437153           13.4298776893
    61   2     0.32261174233609602      44.901688895507583      5.0635815537999997
    62   1     0.32261174288606304      112.76746819231568      3.0874183849999999
    63   1     0.32261174288606304      112.76746819231568      7.1900737958000001
    64   4     0.38126842278414041      46.896016030732895      5.2105475048000001
    65   2     0.38126842278414041      46.896016030732895               2.9496935
    66   2     0.38126842278414041      46.896016030732895      7.0523489108000001
    67   2     0.38126842333386651      114.76179532754099      5.0635815537999997
    68   2     0.43992510326425238      48.890343167058148      5.0635815537999997
    69   1     0.43992510381397837      116.75612246386599      3.0874183849999999
    70   1     0.43992510381397837      116.75612246386599      7.1900737958000001
    71   4     0.49858178371205564      50.884670302283702      5.2105475048000001
    72   2     0.49858178371205564      50.884670302283702               2.9496935
    73   2     0.49858178371205564      50.884670302283702      7.0523489108000001
    74   2     0.49858178426178185      118.75044959909155      5.0635815537999997
    75   2      0.5572384641921676      52.878997438608955      5.0635815537999997
    76   1     0.55723846474189331      120.74477673541681      3.0874183849999999
    77   1     0.55723846474189331      120.74477673541681      7.1900737958000001
    78   3     0.60391040062603563      48.279970154472004           11.8416575997
    79   3     0.60391040062603563      48.279970154472004           16.1275452197
    80   4     0.60409355450799729      59.590710404216971      13.808564961699998
    81   2     0.60409355450799729      59.590710404216971      11.293897032299999
    82   2     0.60409355450799729      59.590710404216971      15.579784652299999
    83   4      0.6044598622722821      82.212190903706912      13.808564961699998
    84   2      0.6044598622722821      82.212190903706912      11.293897032299999
    85   2      0.6044598622722821      82.212190903706912      15.579784652299999
    86   3     0.60464301615472604      93.522931153451879           11.8416575997
    87   3     0.60464301615472604      93.522931153451879           16.1275452197
    88   4     0.60482617003656725      104.83367140319686      13.808564961699998
    89   2     0.60482617003656725      104.83367140319686      11.293897032299999
    90   2     0.60482617003656725      104.83367140319686      15.579784652299999
    91   3      0.6050093239188914      116.14441165294183           11.8416575997
    92   3      0.6050093239188914      116.14441165294183           16.1275452197
    93   4     0.60508103544222291      14.340200365232437      13.808564961699998
    94   2     0.60508103544222291      14.340200365232437      11.293897032299999
    95   2     0.60508103544222291      14.340200365232437      15.579784652299999
    96   4     0.60519247780097363      127.45515190268681      13.808564961699998
    97   2     0.60519247780097363      127.45515190268681      11.293897032299999
    98   2     0.60519247780097363      127.45515190268681      15.579784652299999
    99   3     0.60526418932466686      25.650940614977408           11.8416575997
   100   3     0.60526418932466686      25.650940614977408           16.1275452197
   101   4     0.60544734320662874      36.961680864722865      13.808564961699998
   102   2     0.60544734320662874      36.961680864722865      11.293897032299999
   103   2     0.60544734320662874      36.961680864722865      15.579784652299999
   104   4     0.61589514463997086      54.873324573834502      5.2105475048000001
   105   2     0.61589514463997086      54.873324573834502               2.9496935
   106   2     0.61589514463997086      54.873324573834502      7.0523489108000001
   107   2     0.61589514518969635      122.73910387064235      5.0635815537999997
   108   3     0.61674765277193699      2.9495740222713822           11.8416575997
   109   3     0.61674765277193699      2.9495740222713822           16.1275452197
   110   3      0.6178465760644305      70.814015520741037           11.8416575997
   111   3      0.6178465760644305      70.814015520741037           16.1275452197
   112   2     0.67455182512026357      56.867651710159272      5.0635815537999997
   113   1     0.67455182566980865      124.73343100696762      3.0874183849999999
   114   1     0.67455182566980865      124.73343100696762      7.1900737958000001
   115   4     0.73320850556806705      58.861978845384826      5.2105475048000001
   116   2     0.73320850556806705      58.861978845384826               2.9496935
   117   2     0.73320850556806705      58.861978845384826      7.0523489108000001
   118   2     0.73320850611761212      126.72775814219324      5.0635815537999997
   119   2     0.79186518604799794      60.856305981710257      5.0635815537999997
   120   1     0.79186518659796457      128.72208527851794      3.0874183849999999
   121   1     0.79186518659796457      128.72208527851794      7.1900737958000001
   122   4     0.85052186649604233      62.850633116935505      5.2105475048000001
   123   2     0.85052186649604233      62.850633116935505               2.9496935
   124   2     0.85052186649604233      62.850633116935505      7.0523489108000001
   125   2     0.85052186704576804      130.71641241374351      5.0635815537999997
   126   2      0.9091785469761543      64.844960253260396      5.0635815537999997
   127   1      0.9091785475258799      132.71073955006852      3.0874183849999999
   128   1      0.9091785475258799      132.71073955006852      7.1900737958000001
   129   2     0.93683241480862811      63.915399818711499           13.4298776893
   130   2      0.9370155686904692       75.22614006845599           13.4298776893
   131   2     0.93719872257291303      86.536880318200957           13.4298776893
   132   2      0.9373818764548747      97.847620567946421           13.4298776893
   133   2     0.93756503033695715      109.15836081769091           13.4298776893
   134   2     0.93763674186053036      7.3541495299824824           13.4298776893
   135   2     0.93781989574285363       18.66488977972697           13.4298776893
   136   2      0.9379313381013622      131.77984131718131           13.4298776893
   137   2      0.9380030496248154       29.97563002947194           13.4298776893
   138   2     0.93818620350725901      41.286370279217387           13.4298776893
   139   2     0.95021912860005309      52.517224435745682           13.4298776893
   140   2     0.95084030177011425      120.37679249092001           13.4298776893
   141   4     0.96783522742395733      66.839287388485943      5.2105475048000001
   142   2     0.96783522742395733      66.839287388485943               2.9496935
   143   2     0.96783522742395733      66.839287388485943      7.0523489108000001
   144   2     0.96783522797368338      134.70506668529418      5.0635815537999997
   145   2      1.0264919079040697       68.83361452481121      5.0635815537999997
   146   1      1.0264919084537949     0.96783522797054866      3.0874183849999999
   147   1      1.0264919084537949     0.96783522797054866      7.1900737958000001
   148   4      1.0851485883518728      70.827941660036757      5.2105475048000001
   149   2      1.0851485883518728      70.827941660036757               2.9496935
   150   2      1.0851485883518728      70.827941660036757      7.0523489108000001
   151   2      1.0851485889015982      2.9621623631961049      5.0635815537999997
   152   2      1.1438052688319849      72.822268796361769      5.0635815537999997
   153   1        1.14380526938171      4.9564894995213526      3.0874183849999999
   154   1        1.14380526938171      4.9564894995213526      7.1900737958000001
   155   4      1.2024619492797879      74.816595931587315      5.2105475048000001
   156   2      1.2024619492797879      74.816595931587315               2.9496935
   157   2      1.2024619492797879      74.816595931587315      7.0523489108000001
   158   2      1.2024619498295135      6.9508166347466682      5.0635815537999997
   159   2      1.2611186297598997      76.810923067912327      5.0635815537999997
   160   1      1.2611186303096251      8.9451437710721589      3.0874183849999999
   161   1      1.2611186303096251      8.9451437710721589      7.1900737958000001
   162   3      1.2693881212268148      56.929348983460585           11.8416575997
   163   3      1.2693881212268148      56.929348983460585           16.1275452197
   164   4      1.2695712751088968      68.240089233205552      13.808564961699998
   165   2      1.2695712751088968      68.240089233205552      11.293897032299999
   166   2      1.2695712751088968      68.240089233205552      15.579784652299999
   167   3      1.2697544289910996      79.550829482950036           11.8416575997
   168   3      1.2697544289910996      79.550829482950036           16.1275452197
   169   4      1.2699375828730619      90.861569732695031      13.808564961699998
   170   2      1.2699375828730619      90.861569732695031      11.293897032299999
   171   2      1.2699375828730619      90.861569732695031      15.579784652299999
   172   4      1.2703038906372259      113.48305023218543      13.808564961699998
   173   2      1.2703038906372259      113.48305023218543      11.293897032299999
   174   2      1.2703038906372259      113.48305023218543      15.579784652299999
   175   3      1.2703756021610406      11.678838944476531           11.8416575997
   176   3      1.2703756021610406      11.678838944476531           16.1275452197
   177   3      1.2704870445195493      124.79379048192992           11.8416575997
   178   3      1.2704870445195493      124.79379048192992           16.1275452197
   179   4      1.2705587560430021      22.989579194221022      13.808564961699998
   180   2      1.2705587560430021      22.989579194221022      11.293897032299999
   181   2      1.2705587560430021      22.989579194221022      15.579784652299999
   182   4      1.2706701984016311     0.37297213802734297      13.808564961699998
   183   2      1.2706701984016311     0.37297213802734297      11.293897032299999
   184   2      1.2706701984016311     0.37297213802734297      15.579784652299999
   185   4      1.2709250638072873      45.611059693711439      13.808564961699998
   186   2      1.2709250638072873      45.611059693711439      11.293897032299999
   187   2      1.2709250638072873      45.611059693711439      15.579784652299999
   188   3       1.281970507966578      102.09242388922381           11.8416575997
   189   3       1.281970507966578      102.09242388922381           16.1275452197
   190   3        1.28259168113664      34.220433350749609           11.8416575997
   191   3        1.28259168113664      34.220433350749609           16.1275452197
   192   4      1.3197753102077032      78.805250203138002      5.2105475048000001
   193   2      1.3197753102077032      78.805250203138002               2.9496935
   194   2      1.3197753102077032      78.805250203138002      7.0523489108000001
   195   2      1.3197753107574286      10.939470906297593      5.0635815537999997
   196   2      1.3784319906878153      80.799577339462914      5.0635815537999997
   197   1      1.3784319912375405      12.933798042622723      3.0874183849999999
   198   1      1.3784319912375405      12.933798042622723      7.1900737958000001
   199   4      1.4370886711356183      82.793904474688446      5.2105475048000001
   200   2      1.4370886711356183      82.793904474688446               2.9496935
   201   2      1.4370886711356183      82.793904474688446      7.0523489108000001
   202   2      1.4370886716853439      14.928125177848278      5.0635815537999997
   203   2      1.4957453516157306      84.788231611013714      5.0635815537999997
   204   1      1.4957453521656969      16.922452314173047      3.0874183849999999
   205   1      1.4957453521656969      16.922452314173047      7.1900737958000001
   206   4      1.5544020320635337       86.78255874623926      5.2105475048000001
   207   2      1.5544020320635337       86.78255874623926               2.9496935
   208   2      1.5544020320635337       86.78255874623926      7.0523489108000001
   209   2      1.5544020326135004      18.916779449398604      5.0635815537999997
   210   2      1.6019438276451219       49.94329814820918           13.4298776893
   211   2       1.602126981526963      61.254038397954638           13.4298776893
   212   2      1.6023101354091662      72.564778647699612           13.4298776893
   213   2      1.6026764431736922      95.186259147189546           13.4298776893
   214   2      1.6028595970555337        106.496999396935           13.4298776893
   215   2      1.6029313085793477      4.6927881092256118           13.4298776893
   216   2      1.6030427509378562        117.807739646679           13.4298776893
   217   2      1.6032259048199395      129.11847989642493           13.4298776893
   218   2      1.6032976163437533      27.314268608715555           13.4298776893
   219   2      1.6034807702255944      38.625008858460042           13.4298776893
   220   2      1.6130587125438873      88.776885882564017      5.0635815537999997
   221   1       1.613058713093612      20.911106585723608      3.0874183849999999
   222   1       1.613058713093612      20.911106585723608      7.1900737958000001
   223   2      1.6143430605026829      83.795632804228234           13.4298776893
   224   2      1.6149642336727441      15.923642265754047           13.4298776893
   225   4      1.6717153929914492      90.771213017789833      5.2105475048000001
   226   2      1.6717153929914492      90.771213017789833               2.9496935
   227   2      1.6717153929914492      90.771213017789833      7.0523489108000001
   228   2      1.6717153935414153      22.905433720949166      5.0635815537999997
   229   2       1.730372073471802      92.765540154114817      5.0635815537999997
   230   1      1.7303720740215274       24.89976085727417      3.0874183849999999
   231   1      1.7303720740215274       24.89976085727417      7.1900737958000001
   232   4      1.7890287539193643      94.759867289340391      5.2105475048000001
   233   2      1.7890287539193643      94.759867289340391               2.9496935
   234   2      1.7890287539193643      94.759867289340391      7.0523489108000001
   235   2      1.7890287544693306      26.894087992499962      5.0635815537999997
   236   2      1.8476854343997173      96.754194425665489      5.0635815537999997
   237   1      1.8476854349494423      28.888415128824974      3.0874183849999999
   238   1      1.8476854349494423      28.888415128824974      7.1900737958000001
   239   4      1.9063421148472794      98.748521560891064      5.2105475048000001
   240   2      1.9063421148472794      98.748521560891064               2.9496935
   241   2      1.9063421148472794      98.748521560891064      7.0523489108000001
   242   2      1.9063421153972457      30.882742264050528      5.0635815537999997
   243   4        1.93468268794515      54.267987562703709      13.808564961699998
   244   2        1.93468268794515      54.267987562703709      11.293897032299999
   245   2        1.93468268794515      54.267987562703709      15.579784652299999
   246   4      1.9350489957094352       76.88946806219414      13.808564961699998
   247   2      1.9350489957094352       76.88946806219414      11.293897032299999
   248   2      1.9350489957094352       76.88946806219414      15.579784652299999
   249   3      1.9352321495917586      88.200208311938141           11.8416575997
   250   3      1.9352321495917586      88.200208311938141           16.1275452197
   251   4      1.9354153034738404      99.510948561684074      13.808564961699998
   252   2      1.9354153034738404      99.510948561684074      11.293897032299999
   253   2      1.9354153034738404      99.510948561684074      15.579784652299999
   254   3      1.9355984573560434      110.82168881142857           11.8416575997
   255   3      1.9355984573560434      110.82168881142857           16.1275452197
   256   4      1.9356701688794962      9.0174775237196627      13.808564961699998
   257   2      1.9356701688794962      9.0174775237196627      11.293897032299999
   258   2      1.9356701688794962      9.0174775237196627      15.579784652299999
   259   4      1.9357816112380053      122.13242906117354      13.808564961699998
   260   2      1.9357816112380053      122.13242906117354      11.293897032299999
   261   2      1.9357816112380053      122.13242906117354      15.579784652299999
   262   3       1.935853322761699      20.328217773464637           11.8416575997
   263   3       1.935853322761699      20.328217773464637           16.1275452197
   264   4      1.9360364766436609      31.638958023209604      13.808564961699998
   265   2      1.9360364766436609      31.638958023209604      11.293897032299999
   266   2      1.9360364766436609      31.638958023209604      15.579784652299999
   267   3      1.9362196305262251      42.949698272954571           11.8416575997
   268   3      1.9362196305262251      42.949698272954571           16.1275452197
   269   3      1.9460944398687265      133.37083225770638           11.8416575997
   270   3      1.9460944398687265      133.37083225770638           16.1275452197
   271   3      1.9467156130387875      65.498841719232175           11.8416575997
   272   3      1.9467156130387875      65.498841719232175           16.1275452197
   273   2       1.964998795327632      100.74284869721606      5.0635815537999997
   274   1      1.9649987958773576      32.877069400375532      3.0874183849999999
   275   1      1.9649987958773576      32.877069400375532      7.1900737958000001
   276   4      2.0236554757751946      102.73717583244169      5.2105475048000001
   277   2      2.0236554757751946      102.73717583244169               2.9496935
   278   2      2.0236554757751946      102.73717583244169      7.0523489108000001
   279   2      2.0236554763251613      34.871396535601335      5.0635815537999997
   280   2       2.082312156255548      104.73150296876676      5.0635815537999997
   281   1      2.0823121568055138      36.865723671926098      3.0874183849999999
   282   1      2.0823121568055138      36.865723671926098      7.1900737958000001
   283   4      2.1409688367031103      106.72583010399232      5.2105475048000001
   284   2      2.1409688367031103      106.72583010399232               2.9496935
   285   2      2.1409688367031103      106.72583010399232      7.0523489108000001
   286   2      2.1409688372533173      38.860050807151651      5.0635815537999997
   287   2      2.1996255171837031      108.72015724031706      5.0635815537999997
   288   1      2.1996255177334292      40.854377943476663      3.0874183849999999
   289   1      2.1996255177334292      40.854377943476663      7.1900737958000001
   290   4      2.2582821976315071      110.71448437554264      5.2105475048000001
   291   2      2.2582821976315071      110.71448437554264               2.9496935
   292   2      2.2582821976315071      110.71448437554264      7.0523489108000001
   293   2      2.2582821981812327      42.848705078702217      5.0635815537999997
   294   2      2.2674215482459013      58.592676977198245           13.4298776893
   295   2      2.2676047021277421      69.903417226943219           13.4298776893
   296   2      2.2677878560100657      81.214157476687689           13.4298776893
   297   2      2.2679710098920278      92.524897726432684           13.4298776893
   298   2      2.2681541637744713      103.83563797617764           13.4298776893
   299   2      2.2684090291800065      13.342166938213714           13.4298776893
   300   2      2.2685204715386358      126.45711847566758           13.4298776893
   301   2      2.2685921830619686      24.652907187958686           13.4298776893
   302   2       2.268703625420597       2.036300131764524           13.4298776893
   303   2      2.2687753369445325       35.96364743770414           13.4298776893
   304   2      2.2784669924048302      115.07404117271068           13.4298776893
   305   2      2.2795659156978063      47.206924077532037           13.4298776893
   306   2      2.3169388781116194      112.70881151186764      5.0635815537999997
   307   1      2.3169388786613445      44.843032215027236      3.0874183849999999
   308   1      2.3169388786613445      44.843032215027236      7.1900737958000001
   309   4      2.3755955585594224       114.7031386470933      5.2105475048000001
   310   2      2.3755955585594224       114.7031386470933               2.9496935
   311   2      2.3755955585594224       114.7031386470933      7.0523489108000001
   312   2       2.375595559109148      46.837359350252783      5.0635815537999997
   313   2      2.4342522390395347      116.69746578341844      5.0635815537999997
   314   1      2.4342522395892598      48.831686486577794      3.0874183849999999
   315   1      2.4342522395892598      48.831686486577794      7.1900737958000001
   316   4      2.4929089194873382        118.691792918644      5.2105475048000001
   317   2      2.4929089194873382        118.691792918644               2.9496935
   318   2      2.4929089194873382        118.691792918644      7.0523489108000001
   319   2      2.4929089200370633       50.82601362180359      5.0635815537999997
   320   2        2.55156559996745        120.686120054969      5.0635815537999997
   321   1      2.5515656005171747      52.820340758128602      3.0874183849999999
   322   1      2.5515656005171747      52.820340758128602      7.1900737958000001
   323   3       2.599977254664088       51.60662614194684           11.8416575997
   324   3       2.599977254664088       51.60662614194684           16.1275452197
   325   4      2.6001604085459284      62.917366391692291      13.808564961699998
   326   2      2.6001604085459284      62.917366391692291      11.293897032299999
   327   2      2.6001604085459284      62.917366391692291      15.579784652299999
   328   3       2.600343562428252      74.228106641436767           11.8416575997
   329   3       2.600343562428252      74.228106641436767           16.1275452197
   330   4      2.6005267163102141      85.538846891182246      13.808564961699998
   331   2      2.6005267163102141      85.538846891182246      11.293897032299999
   332   2      2.6005267163102141      85.538846891182246      15.579784652299999
   333   4      2.6008930240743786       108.1603273906717      13.808564961699998
   334   2      2.6008930240743786       108.1603273906717      11.293897032299999
   335   2      2.6008930240743786       108.1603273906717      15.579784652299999
   336   3       2.600964735598434      6.3561161029632753           11.8416575997
   337   3       2.600964735598434      6.3561161029632753           16.1275452197
   338   3      2.6010761779568226      119.47106764041665           11.8416575997
   339   3      2.6010761779568226      119.47106764041665           16.1275452197
   340   4       2.601147889480155      17.666856352707764      13.808564961699998
   341   2       2.601147889480155      17.666856352707764      11.293897032299999
   342   2       2.601147889480155      17.666856352707764      15.579784652299999
   343   4      2.6012593318387842      130.78180789016213      13.808564961699998
   344   2      2.6012593318387842      130.78180789016213      11.293897032299999
   345   2      2.6012593318387842      130.78180789016213      15.579784652299999
   346   4      2.6015141972445606      40.288336852198185      13.808564961699998
   347   2      2.6015141972445606      40.288336852198185      11.293897032299999
   348   2      2.6015141972445606      40.288336852198185      15.579784652299999
   349   4      2.6102222804152535      122.68044719019456      5.2105475048000001
   350   2      2.6102222804152535      122.68044719019456               2.9496935
   351   2      2.6102222804152535      122.68044719019456      7.0523489108000001
   352   2      2.6102222809649778      54.814667893354269      5.0635815537999997
   353   3       2.610839544940935      96.777250087714862           11.8416575997
   354   3       2.610839544940935      96.777250087714862           16.1275452197
   355   3      2.6119384682339106      28.910132992536234           11.8416575997
   356   3      2.6119384682339106      28.910132992536234           16.1275452197
   357   2      2.6688789608956056      124.67477432651957      5.0635815537999997