(written by ASE)

6713 atoms
4 atom types

0.0      86.140445786731163  xlo xhi
0.0      86.140445786731163  ylo yhi
0.0      63.177851719700001  zlo zhi

Masses

     1       137.3269999646734 # Ba
     2      15.998999995884349 # O
     3      207.19999994669897 # Pb
     4      47.866999987686484 # Ti

Atoms # atomic

     1   4  1.6648194836028324e-10       64.60533433977723      5.2105475048000001
     2   2  1.6648194836028324e-10       64.60533433977723               2.9496935
     3   2  1.6648194836028324e-10       64.60533433977723      7.0523489108000001
     4   3  1.0405874473595266e-05      6.8635700023347628           11.8416575997
     5   3  1.0405874473595266e-05      6.8635700023347628           16.1275452197
     6   2  8.7985810805910603e-05      36.220909507342874           13.4298776893
     7   2  0.00010879755965697145      49.948049512012254           13.4298776893
     8   4  0.00018637749600927352      79.305389017020531      13.808564961699998
     9   2  0.00018637749600927352      79.305389017020531      11.293897032299999
    10   2  0.00018637749600927352      79.305389017020531      15.579784652299999
    11   2    0.063351880054583309      63.682649537941884           13.4298776893
    12   4    0.065108054242065436      20.612633867388951      13.808564961699998
    13   2    0.065108054242065436      20.612633867388951      11.293897032299999
    14   2    0.065108054242065436      20.612633867388951      15.579784652299999
    15   2    0.092425370647329225      56.379476319497769      5.0635815537999997
    16   2    0.092425371309737311      13.309253426539748      5.0635815537999997
    17   3     0.15191190073919422       34.32864647682316           11.8416575997
    18   3     0.15191190073919422       34.32864647682316           16.1275452197
    19   2     0.15366807492683288      77.399076593001695           13.4298776893
    20   1     0.18485074179043329      5.0833954062605171      3.0874183849999999
    21   1     0.18485074179043329      5.0833954062605171      7.1900737958000001
    22   4     0.18485074219806938      48.153618298963771      5.2105475048000001
    23   2     0.18485074219806938      48.153618298963771               2.9496935
    24   2     0.18485074219806938      48.153618298963771      7.0523489108000001
    25   4      0.2387157472366308      48.044659086256758      13.808564961699998
    26   2      0.2387157472366308      48.044659086256758      11.293897032299999
    27   2      0.2387157472366308      48.044659086256758      15.579784652299999
    28   2     0.24047192142380863       4.974643415704131           13.4298776893
    29   2     0.27727611267891833       39.92776027868458      5.0635815537999997
    30   2     0.27727611334132574      82.997983172457367      5.0635815537999997
    31   3     0.32551959373375977      61.760671695691272           11.8416575997
    32   3     0.32551959373375977      61.760671695691272           16.1275452197
    33   2     0.32727576792093732      18.690656025138338           13.4298776893
    34   1     0.36970148382217616      74.772125152178148      3.0874183849999999
    35   1     0.36970148382217616      74.772125152178148      7.1900737958000001
    36   4      0.3697014842296551      31.701902258150309      5.2105475048000001
    37   2      0.3697014842296551      31.701902258150309               2.9496935
    38   2      0.3697014842296551      31.701902258150309      7.0523489108000001
    39   2     0.41407961441837332      32.406668634572547           13.4298776893
    40   4     0.41583578860600939      75.477098750751097      13.808564961699998
    41   2     0.41583578860600939      75.477098750751097      11.293897032299999
    42   2     0.41583578860600939      75.477098750751097      15.579784652299999
    43   2     0.46212685471050458      23.476044237870926      5.0635815537999997
    44   2     0.46212685537291187      66.546267131643987      5.0635815537999997
    45   2     0.52736622318103776      46.018968575264736           13.4298776893
    46   3     0.52912239736806133      2.9489529047119518           11.8416575997
    47   3     0.52912239736806133      2.9489529047119518           16.1275452197
    48   1      0.5545522258536083      58.320409111364761      3.0874183849999999
    49   1      0.5545522258536083      58.320409111364761      7.1900737958000001
    50   4     0.55455222626124212      15.250186217336847      5.2105475048000001
    51   2     0.55455222626124212      15.250186217336847               2.9496935
    52   2     0.55455222626124212      15.250186217336847      7.0523489108000001
    53   2     0.58768730741293607      59.838693853440354           13.4298776893
    54   4     0.59027237285116962      16.761653486138101      13.808564961699998
    55   2     0.59027237285116962      16.761653486138101      11.293897032299999
    56   2     0.59027237285116962      16.761653486138101      15.579784652299999
    57   2     0.64697759674224464      7.0243281970573888      5.0635815537999997
    58   2     0.64697759740449801      50.094551090830606      5.0635815537999997
    59   3     0.67624732809739818      30.484690792321633           11.8416575997
    60   3     0.67624732809739818      30.484690792321633           16.1275452197
    61   2     0.67800350228503514      73.555120908500172           13.4298776893
    62   1     0.73940296788534832      41.868693070551068      3.0874183849999999
    63   1     0.73940296788534832      41.868693070551068      7.1900737958000001
    64   4     0.73940296829283059      84.938915963254559      5.2105475048000001
    65   2     0.73940296829283059      84.938915963254559               2.9496935
    66   2     0.73940296829283059      84.938915963254559      7.0523489108000001
    67   4     0.76305117459468086       44.20070340175554      13.808564961699998
    68   2     0.76305117459468086       44.20070340175554      11.293897032299999
    69   2     0.76305117459468086       44.20070340175554      15.579784652299999
    70   2     0.76480734878216428      1.1306877312032173           13.4298776893
    71   2     0.83182833877383144      76.713057942975027      5.0635815537999997
    72   2     0.83182833943608592      33.642835050017077      5.0635815537999997
    73   3     0.87550889210613525      57.820028039197659           11.8416575997
    74   3     0.87550889210613525      57.820028039197659           16.1275452197
    75   2     0.87726506629377321      14.750012368645029           13.4298776893
    76   1     0.92425370991693367      25.416977029737843      3.0874183849999999
    77   1     0.92425370991693367      25.416977029737843      7.1900737958000001
    78   4      0.9242537103244175      68.487199922441008      5.2105475048000001
    79   2      0.9242537103244175      68.487199922441008               2.9496935
    80   2      0.9242537103244175      68.487199922441008      7.0523489108000001
    81   2     0.93841504177657642      28.562712950071028           13.4298776893
    82   4     0.94017121596390707      71.633143066249545      13.808564961699998
    83   2     0.94017121596390707      71.633143066249545      11.293897032299999
    84   2     0.94017121596390707      71.633143066249545      15.579784652299999
    85   2      1.0166790808054176      60.261341902161632      5.0635815537999997
    86   2      1.0166790814676729      17.191119009203685      5.0635815537999997
    87   2      1.0252188882737034      42.278725559504927           13.4298776893
    88   3      1.0269750624611915      85.349155675683491           11.8416575997
    89   3      1.0269750624611915      85.349155675683491           16.1275452197
    90   1      1.1091044519486748      8.9652609889241504      3.0874183849999999
    91   1      1.1091044519486748      8.9652609889241504      7.1900737958000001
    92   4      1.1091044523561568      52.035483881627485      5.2105475048000001
    93   2      1.1091044523561568      52.035483881627485               2.9496935
    94   2      1.1091044523561568      52.035483881627485      7.0523489108000001
    95   2      1.1120227347708356      55.994738168938831           13.4298776893
    96   4      1.1137789089583183      12.924722498386206      13.808564961699998
    97   2      1.1137789089583183      12.924722498386206      11.293897032299999
    98   2      1.1137789089583183      12.924722498386206      15.579784652299999
    99   2      1.2015298228370062      43.809625861348103      5.0635815537999997
   100   2      1.2015298234992595     0.73940296839030095      5.0635815537999997
   101   2      1.2240660066569897      69.617575154756068           13.4298776893
   102   3      1.2258221808444771      26.547559484202985           11.8416575997
   103   3      1.2258221808444771      26.547559484202985           16.1275452197
   104   4      1.2873866019528835      40.356747717254628      13.808564961699998
   105   2      1.2873866019528835      40.356747717254628      11.293897032299999
   106   2      1.2873866019528835      40.356747717254628      15.579784652299999
   107   2       1.289142776140058      83.427177833432552           13.4298776893
   108   1      1.2939551939802587      78.653990734841926      3.0874183849999999
   109   1      1.2939551939802587      78.653990734841926      7.1900737958000001
   110   4       1.293955194387743      35.583767840814097      5.2105475048000001
   111   2       1.293955194387743      35.583767840814097               2.9496935
   112   2       1.293955194387743      35.583767840814097      7.0523489108000001
   113   3      1.3741904484500103      54.072760326688226           11.8416575997
   114   3      1.3741904484500103      54.072760326688226           16.1275452197
   115   2      1.3759466226374963       11.00274465613529           13.4298776893
   116   2      1.3863805648685932      27.357909820534712      5.0635815537999997
   117   2      1.3863805655308465      70.428132714307921      5.0635815537999997
   118   2      1.4627504691346258       24.71875726556981           13.4298776893
   119   4      1.4645066433222615      67.789187381748036      13.808564961699998
   120   2      1.4645066433222615      67.789187381748036      11.293897032299999
   121   2      1.4645066433222615      67.789187381748036      15.579784652299999
   122   1      1.4788059360118484      62.202274694028546      3.0874183849999999
   123   1      1.4788059360118484      62.202274694028546      7.1900737958000001
   124   4      1.4788059364193311      19.132051800000561      5.2105475048000001
   125   2      1.4788059364193311      19.132051800000561               2.9496935
   126   2      1.4788059364193311      19.132051800000561      7.0523489108000001
   127   2      1.5712313069001791      10.906193779721251      5.0635815537999997
   128   2      1.5712313075624311      53.976416673494548      5.0635815537999997
   129   3      1.5722086755825528      81.418634618688998           11.8416575997
   130   3      1.5722086755825528      81.418634618688998           16.1275452197
   131   2      1.5739648497697294      38.348618948135901           13.4298776893
   132   2      1.6363581621291903      52.150782484437613           13.4298776893
   133   4      1.6381143363166744      9.0807668138846793      13.808564961699998
   134   2      1.6381143363166744      9.0807668138846793      11.293897032299999
   135   2      1.6381143363166744      9.0807668138846793      15.579784652299999
   136   1      1.6636566780434354      45.750558653215009      3.0874183849999999
   137   1      1.6636566780434354      45.750558653215009      7.1900737958000001
   138   4      1.6636566784510705      2.6803357591870198      5.2105475048000001
   139   2      1.6636566784510705      2.6803357591870198               2.9496935
   140   2      1.6636566784510705      2.6803357591870198      7.0523489108000001
   141   2      1.7231620086263206      65.866795093871531           13.4298776893
   142   3      1.7249181828136508      22.796779423318586           11.8416575997
   143   3      1.7249181828136508      22.796779423318586           16.1275452197
   144   2      1.7560820489319175      80.594923525638805      5.0635815537999997
   145   2      1.7560820495940193      37.524700632681196      5.0635815537999997
   146   4      1.8117220293109317      36.512792032753104      13.808564961699998
   147   2      1.8117220293109317      36.512792032753104      11.293897032299999
   148   2      1.8117220293109317      36.512792032753104      15.579784652299999
   149   2      1.8134782034982622      79.583222148931327           13.4298776893
   150   1      1.8485074200750224      29.298842612401476      3.0874183849999999
   151   1      1.8485074200750224      29.298842612401476      7.1900737958000001
   152   4      1.8485074204826559      72.369065505104786      5.2105475048000001
   153   2      1.8485074204826559      72.369065505104786               2.9496935
   154   2      1.8485074204826559      72.369065505104786      7.0523489108000001
   155   3      1.9185951703200159      50.149263966443236           11.8416575997
   156   3      1.9185951703200159      50.149263966443236           16.1275452197
   157   2      1.9203513445076519      7.0792482958904488           13.4298776893
   158   2      1.9409327909633558      64.143207484825581      5.0635815537999997
   159   2      1.9409327916257608      21.072984591867471      5.0635815537999997
   160   4      1.9853297223053448      63.944817251620904      13.808564961699998
   161   2      1.9853297223053448      63.944817251620904      11.293897032299999
   162   2      1.9853297223053448      63.944817251620904      15.579784652299999
   163   2       1.987085896492828      20.874801581068283           13.4298776893
   164   1      2.0333581621066092      12.847126571588243      3.0874183849999999
   165   1      2.0333581621066092      12.847126571588243      7.1900737958000001
   166   4      2.0333581625142445       55.91734946429127      5.2105475048000001
   167   2      2.0333581625142445       55.91734946429127               2.9496935
   168   2      2.0333581625142445       55.91734946429127      7.0523489108000001
   169   2      2.0738897429899574      34.590814190502186           13.4298776893
   170   3      2.0756459171774435       77.66124430668043           11.8416575997
   171   3      2.0756459171774435       77.66124430668043           16.1275452197
   172   2      2.1257835329950932      47.691491444012037      5.0635815537999997
   173   2      2.1257835336573478      4.6212685510543929      5.0635815537999997
   174   2      2.1606935894870878       48.30682679993609           13.4298776893
   175   4      2.1624497636745712      5.2368111293831561      13.808564961699998
   176   2      2.1624497636745712      5.2368111293831561      11.293897032299999
   177   2      2.1624497636745712      5.2368111293831561      15.579784652299999
   178   1      2.2182089041381969      82.535856317505875      3.0874183849999999
   179   1      2.2182089041381969      82.535856317505875      7.1900737958000001
   180   4      2.2182089045458335       39.46563342347789      5.2105475048000001
   181   2      2.2182089045458335       39.46563342347789               2.9496935
   182   2      2.2182089045458335       39.46563342347789      7.0523489108000001
   183   2      2.2671522848708712      61.946811082001496           13.4298776893
   184   3      2.2689084590583546      18.876795411448558           11.8416575997
   185   3      2.2689084590583546      18.876795411448558           16.1275452197
   186   2      2.3106342750266804      31.239775403198653      5.0635815537999997
   187   2      2.3106342756889324      74.309998296971941      5.0635815537999997
   188   4      2.3360574566691357      32.668836348251574      13.808564961699998
   189   2      2.3360574566691357      32.668836348251574      11.293897032299999
   190   2      2.3360574566691357      32.668836348251574      15.579784652299999
   191   2       2.337813630856314      75.739266464429818           13.4298776893
   192   1      2.4030596461697815      66.084140276692494      3.0874183849999999
   193   1      2.4030596461697815      66.084140276692494      7.1900737958000001
   194   4      2.4030596465774186      23.013917382664346      5.2105475048000001
   195   2      2.4030596465774186      23.013917382664346               2.9496935
   196   2      2.4030596465774186      23.013917382664346      7.0523489108000001
   197   3      2.4228613031662642      46.384848957685485           11.8416575997
   198   3      2.4228613031662642      46.384848957685485           16.1275452197
   199   2       2.424617477353749      3.3148332871325454           13.4298776893
   200   2      2.4954850170582672      14.788059362385267      5.0635815537999997
   201   2      2.4954850177206738      57.858282256158176      5.0635815537999997
   202   4      2.5096651496633946      60.100861567119388      13.808564961699998
   203   2      2.5096651496633946      60.100861567119388      11.293897032299999
   204   2      2.5096651496633946      60.100861567119388      15.579784652299999
   205   2       2.511421323850878      17.030845896566756           13.4298776893
   206   1       2.587910388201371      49.632424235879107      3.0874183849999999
   207   1       2.587910388201371      49.632424235879107      7.1900737958000001
   208   4      2.5879103886090054      6.5622013418511109      5.2105475048000001
   209   2      2.5879103886090054      6.5622013418511109               2.9496935
   210   2      2.5879103886090054      6.5622013418511109      7.0523489108000001
   211   3      2.6152949537962007      73.747870545934418           11.8416575997
   212   3      2.6152949537962007      73.747870545934418           16.1275452197
   213   2      2.6170511279836837      30.677854875381477           13.4298776893
   214   2      2.6803357590898571      84.476789108302967      5.0635815537999997
   215   2      2.6803357597522632      41.406566215344796      5.0635815537999997
   216   2      2.6850290168454443      44.462871115434567           13.4298776893
   217   4       2.686785191032774      1.3928554448819359      13.808564961699998
   218   2       2.686785191032774      1.3928554448819359      11.293897032299999
   219   2       2.686785191032774      1.3928554448819359      15.579784652299999
   220   2      2.7718328633425711      58.178883724868776           13.4298776893
   221   1      2.7727611302331114       33.18070819506557      3.0874183849999999
   222   1      2.7727611302331114       33.18070819506557      7.1900737958000001
   223   4      2.7727611306405908      76.250931087768748      5.2105475048000001
   224   2      2.7727611306405908      76.250931087768748               2.9496935
   225   2      2.7727611306405908      76.250931087768748      7.0523489108000001
   226   3      2.7735890375300567      15.108868054316147           11.8416575997
   227   3      2.7735890375300567      15.108868054316147           16.1275452197
   228   4       2.860392884027338      28.824880663750047      13.808564961699998
   229   2       2.860392884027338      28.824880663750047      11.293897032299999
   230   2       2.860392884027338      28.824880663750047      15.579784652299999
   231   2        2.86214905821467       71.89531077992828           13.4298776893
   232   2       2.865186501121594      68.025073067489345      5.0635815537999997
   233   2      2.8651865017838483      24.954850174531412      5.0635815537999997
   234   1      2.9576118722646974      16.728992154252026      3.0874183849999999
   235   1      2.9576118722646974      16.728992154252026      7.1900737958000001
   236   4      2.9576118726721798      59.799215046955283      5.2105475048000001
   237   2      2.9576118726721798      59.799215046955283               2.9496935
   238   2      2.9576118726721798      59.799215046955283      7.0523489108000001
   239   2       2.963437622721377      85.548930009867192           13.4298776893
   240   3       2.965193796908784      42.478914339314407           11.8416575997
   241   3       2.965193796908784      42.478914339314407           16.1275452197
   242   4       3.034000577021597      56.256905882618163      13.808564961699998
   243   2       3.034000577021597      56.256905882618163      11.293897032299999
   244   2       3.034000577021597      56.256905882618163      15.579784652299999
   245   2      3.0357567512090813      13.186890212065537           13.4298776893
   246   2      3.0500372431531813      51.573357026675822      5.0635815537999997
   247   2      3.0500372438154351      8.5031341337177189      5.0635815537999997
   248   2      3.1225605977062103      26.902902821499438           13.4298776893
   249   3      3.1243167718936959      69.973332937677668           11.8416575997
   250   3      3.1243167718936959      69.973332937677668           16.1275452197
   251   1      3.1424626142962846     0.27727611343864289      3.0874183849999999
   252   1      3.1424626142962846     0.27727611343864289      7.1900737958000001
   253   4      3.1424626147039212      43.347499006141824      5.2105475048000001
   254   2      3.1424626147039212      43.347499006141824               2.9496935
   255   2      3.1424626147039212      43.347499006141824      7.0523489108000001
   256   2      3.2093644442033402      40.618915430933349           13.4298776893
   257   4       3.211120618390825      83.689345547111898      13.808564961699998
   258   2       3.211120618390825      83.689345547111898      11.293897032299999
   259   2       3.211120618390825      83.689345547111898      15.579784652299999
   260   2      3.2348879851847672      35.121640985862435      5.0635815537999997
   261   2      3.2348879858470196      78.191863879635648      5.0635815537999997
   262   3      3.3115802916465533      11.209543687068946           11.8416575997
   263   3      3.3115802916465533      11.209543687068946           16.1275452197
   264   2      3.3133364658340345      54.279973803247479           13.4298776893
   265   1      3.3273133563280277      69.966005859356116      3.0874183849999999
   266   1      3.3273133563280277      69.966005859356116      7.1900737958000001
   267   4      3.3273133567355071      26.895782965328284      5.2105475048000001
   268   2      3.3273133567355071      26.895782965328284               2.9496935
   269   2      3.3273133567355071      26.895782965328284      7.0523489108000001
   270   4      3.3847283113852358      24.980924979248524      13.808564961699998
   271   2      3.3847283113852358      24.980924979248524      11.293897032299999
   272   2      3.3847283113852358      24.980924979248524      15.579784652299999
   273   2      3.3864844855728706      68.051355095427056           13.4298776893
   274   2      3.4197387272163566      18.669924945048901      5.0635815537999997
   275   2      3.4197387278786096      61.740147838822267      5.0635815537999997
   276   3      3.4715321578825185      38.696937588682736           11.8416575997
   277   3      3.4715321578825185      38.696937588682736           16.1275452197
   278   2      3.4732883320700032      81.767367704861286           13.4298776893
   279   1      3.5121640983596119      53.514289818542736      3.0874183849999999
   280   1      3.5121640983596119      53.514289818542736      7.1900737958000001
   281   4       3.512164098767093      10.444066924514898      5.2105475048000001
   282   2       3.512164098767093      10.444066924514898               2.9496935
   283   2       3.512164098767093      10.444066924514898      7.0523489108000001
   284   4      3.5583360043799552       52.41295019811664      13.808564961699998
   285   2      3.5583360043799552       52.41295019811664      11.293897032299999
   286   2      3.5583360043799552       52.41295019811664      15.579784652299999
   287   2      3.5600921785674369      9.3429345275640117           13.4298776893
   288   2      3.6045894692479425      2.2182089042355146      5.0635815537999997
   289   2      3.6045894699101964       45.28843179800873      5.0635815537999997
   290   2      3.6601374061973138      23.007090802627207           13.4298776893
   291   3      3.6618935803847585      66.077520918805746           11.8416575997
   292   3      3.6618935803847585      66.077520918805746           16.1275452197
   293   1      3.6970148403911973      37.062573777729199      3.0874183849999999
   294   1      3.6970148403911973      37.062573777729199      7.1900737958000001
   295   4      3.6970148407986785      80.132796670432526      5.2105475048000001
   296   2      3.6970148407986785      80.132796670432526               2.9496935
   297   2      3.6970148407986785      80.132796670432526      7.0523489108000001
   298   2      3.7336998715616967      36.774959746431819           13.4298776893
   299   4      3.7354560457491828      79.845389862610375      13.808564961699998
   300   2      3.7354560457491828      79.845389862610375      11.293897032299999
   301   2      3.7354560457491828      79.845389862610375      15.579784652299999
   302   2      3.7894402112795307      71.906938650153307      5.0635815537999997
   303   2      3.7894402119417836      28.836715757195197      5.0635815537999997
   304   2      3.8205037180589785      50.490972355865729           13.4298776893
   305   3      3.8222598922463091      7.4209566853130973           11.8416575997
   306   3      3.8222598922463091      7.4209566853130973           16.1275452197
   307   1      3.8818655824227859      20.610857736915662      3.0874183849999999
   308   1      3.8818655824227859      20.610857736915662      7.1900737958000001
   309   4      3.8818655828302675      63.681080629619331      5.2105475048000001
   310   2      3.8818655828302675      63.681080629619331               2.9496935
   311   2      3.8818655828302675      63.681080629619331      7.0523489108000001
   312   2      3.9073075645561079      64.206984965300236           13.4298776893
   313   4      3.9090637387435909       21.13696929474731      13.808564961699998
   314   2      3.9090637387435909       21.13696929474731      11.293897032299999
   315   2      3.9090637387435909       21.13696929474731      15.579784652299999
   316   2      3.9742909533111175      55.455222609339764      5.0635815537999997
   317   2      3.9742909539733704      12.384999716381811      5.0635815537999997
   318   2      4.0065239009351634      77.878165937112925           13.4298776893
   319   3      4.0082800751226202      34.808150266560283           11.8416575997
   320   3      4.0082800751226202      34.808150266560283           16.1275452197
   321   1      4.0667163244543723      4.1591416961024281      3.0874183849999999
   322   1      4.0667163244543723      4.1591416961024281      7.1900737958000001
   323   4      4.0667163248618561      47.229364588805765      5.2105475048000001
   324   2      4.0667163248618561      47.229364588805765               2.9496935
   325   2      4.0667163248618561      47.229364588805765      7.0523489108000001
   326   4      4.0826714317381558      48.568994513615117      13.808564961699998
   327   2      4.0826714317381558      48.568994513615117      11.293897032299999
   328   2      4.0826714317381558      48.568994513615117      15.579784652299999
   329   2      4.0844276059253337      5.4989788430624866           13.4298776893
   330   2      4.1591416953427025      39.003506568526412      5.0635815537999997
   331   2      4.1591416960051113      82.073729462299454      5.0635815537999997
   332   3      4.1694752782352866      62.285007123049326           11.8416575997
   333   3      4.1694752782352866      62.285007123049326           16.1275452197
   334   2      4.1712314524224627      19.214991452496392           13.4298776893
   335   1      4.2515670664859568       73.84787144202005      3.0874183849999999
   336   1      4.2515670664859568       73.84787144202005      7.1900737958000001
   337   4      4.2515670668935952      30.777648547992147      5.2105475048000001
   338   2      4.2515670668935952      30.777648547992147               2.9496935
   339   2      4.2515670668935952      30.777648547992147      7.0523489108000001
   340   2      4.2580352989195926      32.931004061930601           13.4298776893
   341   4      4.2597914731073798      76.001434178109136      13.808564961699998
   342   2      4.2597914731073798      76.001434178109136      11.293897032299999
   343   2      4.2597914731073798      76.001434178109136      15.579784652299999
   344   2      4.3439924373742906      22.551790527712843      5.0635815537999997
   345   2      4.3439924380366994      65.622013421486059      5.0635815537999997
   346   3      4.3546665698604317      3.5387796143146715           11.8416575997
   347   3      4.3546665698604317      3.5387796143146715           16.1275452197
   348   2      4.3564227440477632        46.6092097304929           13.4298776893
   349   2      4.4316429919141562      60.363029280798408           13.4298776893
   350   4      4.4333991661016423      17.293013610245783      13.808564961699998
   351   2      4.4333991661016423      17.293013610245783      11.293897032299999
   352   2      4.4333991661016423      17.293013610245783      15.579784652299999
   353   1      4.4364178085175459      57.396155401206521      3.0874183849999999
   354   1      4.4364178085175459      57.396155401206521      7.1900737958000001
   355   4      4.4364178089251816       14.32593250717853      5.2105475048000001
   356   2      4.4364178089251816       14.32593250717853               2.9496935
   357   2      4.4364178089251816       14.32593250717853      7.0523489108000001