(written by ASE)

6713 atoms
4 atom types

0.0      86.140445786731163  xlo xhi
0.0      86.140445786731163  ylo yhi
0.0      63.177851719700001  zlo zhi

Masses

     1       137.3269999646734 # Ba
     2      15.998999995884349 # O
     3      207.19999994669897 # Pb
     4      47.866999987686484 # Ti

Atoms # atomic

     1   2  1.4322432951838355e-10      64.605334339679757      5.0635815537999997
     2   3    0.033750352167498152      34.723510875901958           11.8416575997
     3   3    0.033750352167498152      34.723510875901958           16.1275452197
     4   2    0.034051437210459182      77.794167534971024           13.4298776893
     5   1    0.092425370624227676      56.379476319400538      3.0874183849999999
     6   1    0.092425370624227676      56.379476319400538      7.1900737958000001
     7   4    0.092425371286479222      13.309253426442428      5.2105475048000001
     8   2    0.092425371286479222      13.309253426442428               2.9496935
     9   2    0.092425371286479222      13.309253426442428      7.0523489108000001
    10   2     0.12137066125729785      61.107812335832996           13.4298776893
    11   4     0.12148395053011971      18.037382255309485      13.808564961699998
    12   2     0.12148395053011971      18.037382255309485      11.293897032299999
    13   2     0.12148395053011971      18.037382255309485      15.579784652299999
    14   2     0.18485074176748098      5.0833954061628921      5.0635815537999997
    15   2     0.18485074217496428      48.153618298866384      5.0635815537999997
    16   2     0.20850208953399413      44.420816183834035           13.4298776893
    17   3     0.20880317457726366      1.3510270561717528           11.8416575997
    18   3     0.20880317457726366      1.3510270561717528           16.1275452197
    19   1     0.27727611265581142      39.927760278586987      3.0874183849999999
    20   1     0.27727611265581142      39.927760278586987      7.1900737958000001
    21   4      0.2772761133180649      82.997983172360222      5.2105475048000001
    22   2      0.2772761133180649      82.997983172360222               2.9496935
    23   2      0.2772761133180649      82.997983172360222      7.0523489108000001
    24   4     0.29612239862409762      70.805117643765143      13.808564961699998
    25   2     0.29612239862409762      70.805117643765143      11.293897032299999
    26   2     0.29612239862409762      70.805117643765143      15.579784652299999
    27   2     0.29623568789661608      27.734687563241636           13.4298776893
    28   2     0.36970148379906687      74.772125152080662      5.0635815537999997
    29   2     0.36970148420654964       31.70190225805284      5.0635815537999997
    30   3      0.3834416226709389      54.118762444627265           11.8416575997
    31   3      0.3834416226709389      54.118762444627265           16.1275452197
    32   2      0.3835549119437594      11.048332364103905           13.4298776893
    33   1     0.46212685468739911       23.47604423777361      3.0874183849999999
    34   1     0.46212685468739911       23.47604423777361      7.1900737958000001
    35   4     0.46212685534965364      66.546267131546983      5.2105475048000001
    36   2     0.46212685534965364      66.546267131546983               2.9496935
    37   2     0.46212685534965364      66.546267131546983      7.0523489108000001
    38   4     0.47057305094732893      37.431766292628268      13.808564961699998
    39   2     0.47057305094732893      37.431766292628268      11.293897032299999
    40   2     0.47057305094732893      37.431766292628268      15.579784652299999
    41   2      0.4708741359902906      80.502422951697298           13.4298776893
    42   2     0.55455222583065367      58.320409111267445      5.0635815537999997
    43   2      0.5545522262381366      15.250186217239529      5.0635815537999997
    44   2     0.55819336003743392      63.816067752559341           13.4298776893
    45   3     0.55830664930994855      20.745637672035905           11.8416575997
    46   3     0.55830664930994855      20.745637672035905           16.1275452197
    47   2     0.64532478831412743      47.129071600560337           13.4298776893
    48   4     0.64562587335709187      4.0592824728981345      13.808564961699998
    49   2     0.64562587335709187      4.0592824728981345      11.293897032299999
    50   2     0.64562587335709187      4.0592824728981345      15.579784652299999
    51   1     0.64697759671898625       7.024328196960071      3.0874183849999999
    52   1     0.64697759671898625       7.024328196960071      7.1900737958000001
    53   4     0.64697759738124072      50.094551090733447      5.2105475048000001
    54   2     0.64697759738124072      50.094551090733447               2.9496935
    55   2     0.64697759738124072      50.094551090733447      7.0523489108000001
    56   2     0.73264401236096588      30.442716401422569           13.4298776893
    57   3     0.73294509740392733      73.513373060491418           11.8416575997
    58   3     0.73294509740392733      73.513373060491418           16.1275452197
    59   2     0.73940296786224247      41.868693070453908      5.0635815537999997
    60   2     0.73940296826972207      84.938915963157385      5.0635815537999997
    61   4     0.82026432145076689      56.827017861353532      13.808564961699998
    62   2     0.82026432145076689      56.827017861353532      11.293897032299999
    63   2     0.82026432145076689      56.827017861353532      15.579784652299999
    64   2     0.82037761072358761      13.756587780830056           13.4298776893
    65   1     0.83182833875057505      76.713057942877853      3.0874183849999999
    66   1     0.83182833875057505      76.713057942877853      7.1900737958000001
    67   4     0.83182833941298073       33.64283504991991      5.2105475048000001
    68   2     0.83182833941298073       33.64283504991991               2.9496935
    69   2     0.83182833941298073       33.64283504991991      7.0523489108000001
    70   3     0.90739574972715475      40.140021709354606           11.8416575997
    71   3     0.90739574972715475      40.140021709354606           16.1275452197
    72   2     0.90769683477042207      83.210678368423416           13.4298776893
    73   2      0.9242537098938286      25.416977029640371      5.0635815537999997
    74   2     0.92425371030146375      68.487199922343706      5.0635815537999997
    75   2      0.9950160588169551      66.524323169285751           13.4298776893
    76   4     0.99512934809008247      23.453893088762168      13.808564961699998
    77   2     0.99512934809008247      23.453893088762168      11.293897032299999
    78   2     0.99512934809008247      23.453893088762168      15.579784652299999
    79   1      1.0166790807821593      60.261341902064473      3.0874183849999999
    80   1      1.0166790807821593      60.261341902064473      7.1900737958000001
    81   4      1.0166790814445665      17.191119009106519      5.2105475048000001
    82   2      1.0166790814445665      17.191119009106519               2.9496935
    83   2      1.0166790814445665      17.191119009106519      7.0523489108000001
    84   2       1.082147487093956      49.837327017286569           13.4298776893
    85   3      1.0824485721372261       6.767537889624399           11.8416575997
    86   3      1.0824485721372261       6.767537889624399           16.1275452197
    87   2      1.1091044519254158      8.9652609888269836      5.0635815537999997
    88   2      1.1091044523330509      52.035483881530162      5.0635815537999997
    89   2      1.1694667111407946       33.15097181814884           13.4298776893
    90   4      1.1697677961837547      76.221628477217905      13.808564961699998
    91   2      1.1697677961837547      76.221628477217905      11.293897032299999
    92   2      1.1697677961837547      76.221628477217905      15.579784652299999
    93   1      1.2015298228137465      43.809625861250929      3.0874183849999999
    94   1      1.2015298228137465      43.809625861250929      7.1900737958000001
    95   4      1.2015298234761542     0.73940296829313557      5.2105475048000001
    96   2      1.2015298234761542     0.73940296829313557               2.9496935
    97   2      1.2015298234761542     0.73940296829313557      7.0523489108000001
    98   3      1.2570870202305955      59.535273278079956           11.8416575997
    99   3      1.2570870202305955      59.535273278079956           16.1275452197
   100   2      1.2572003095034157      16.464843197556398           13.4298776893
   101   2      1.2939551939570078      78.653990734744781      5.0635815537999997
   102   2      1.2939551943646379      35.583767840716774      5.0635815537999997
   103   4      1.3442184485069821      42.848277126080909      13.808564961699998
   104   2      1.3442184485069821      42.848277126080909      11.293897032299999
   105   2      1.3442184485069821      42.848277126080909      15.579784652299999
   106   2      1.3445195335502544      85.918933785149832           13.4298776893
   107   1      1.3863805648453342      27.357909820437548      3.0874183849999999
   108   1      1.3863805648453342      27.357909820437548      7.1900737958000001
   109   4      1.3863805655077435      70.428132714210776      5.2105475048000001
   110   2      1.3863805655077435      70.428132714210776               2.9496935
   111   2      1.3863805655077435      70.428132714210776      7.0523489108000001
   112   2       1.431838757597089      69.232578586012025           13.4298776893
   113   3       1.431952046869911       26.16214850548851           11.8416575997
   114   3       1.431952046869911       26.16214850548851           16.1275452197
   115   2      1.4788059359885899      62.202274693931223      5.0635815537999997
   116   2      1.4788059363962252       19.13205179990339      5.0635815537999997
   117   4      1.5192712709170546       9.475793306350667      13.808564961699998
   118   2      1.5192712709170546       9.475793306350667      11.293897032299999
   119   2      1.5192712709170546       9.475793306350667      15.579784652299999
   120   2      1.5193845601895675      52.545809012558315           13.4298776893
   121   1      1.5712313068769206      10.906193779624008      3.0874183849999999
   122   1      1.5712313068769206      10.906193779624008      7.1900737958000001
   123   4      1.5712313075393272      53.976416673397225      5.2105475048000001
   124   2      1.5712313075393272      53.976416673397225               2.9496935
   125   2      1.5712313075393272      53.976416673397225      7.0523489108000001
   126   2      1.6062894099206229      35.859227234875142           13.4298776893
   127   3      1.6065904949635863      78.929883893944179           11.8416575997
   128   3      1.6065904949635863      78.929883893944179           16.1275452197
   129   2      1.6636566780201758      45.750558653117842      5.0635815537999997
   130   2      1.6636566784278122      2.6803357590897017      5.0635815537999997
   131   4        1.69390971901073      62.243528694806294      13.808564961699998
   132   2        1.69390971901073      62.243528694806294      11.293897032299999
   133   2        1.69390971901073      62.243528694806294      15.579784652299999
   134   2      1.6940230082835492       19.17309861428274           13.4298776893
   135   1      1.7560820489086573      80.594923525541788      3.0874183849999999
   136   1      1.7560820489086573      80.594923525541788      7.1900737958000001
   137   4      1.7560820495710672      37.524700632583688      5.2105475048000001
   138   2      1.7560820495710672      37.524700632583688               2.9496935
   139   2      1.7560820495710672      37.524700632583688      7.0523489108000001
   140   3      1.7810411472871162      45.556532542807176           11.8416575997
   141   3      1.7810411472871162      45.556532542807176           16.1275452197
   142   2      1.7813422323303871      2.4867434151450096           13.4298776893
   143   2      1.8485074200517646      29.298842612304462      5.0635815537999997
   144   2      1.8485074204593972       72.36906550500764      5.0635815537999997
   145   2      1.8686614563769222      71.940834002738299           13.4298776893
   146   4       1.868774745649739      28.870403922214816      13.808564961699998
   147   2       1.868774745649739      28.870403922214816      11.293897032299999
   148   2       1.868774745649739      28.870403922214816      15.579784652299999
   149   1      1.9409327909404015      64.143207484728265      3.0874183849999999
   150   1      1.9409327909404015      64.143207484728265      7.1900737958000001
   151   4      1.9409327916026544      21.072984591770151      5.2105475048000001
   152   2      1.9409327916026544      21.072984591770151               2.9496935
   153   2      1.9409327916026544      21.072984591770151      7.0523489108000001
   154   2      1.9559806804237569      55.254478803600485           13.4298776893
   155   3      1.9560939696965767       12.18404872307697           11.8416575997
   156   3      1.9560939696965767       12.18404872307697           16.1275452197
   157   2      2.0333581620833505      12.847126571490922      5.0635815537999997
   158   2      2.0333581624909876      55.917349464194103      5.0635815537999997
   159   2      2.0431121087004498      38.567482651601516           13.4298776893
   160   4      2.0434131937437185      81.638139310670439      13.808564961699998
   161   2      2.0434131937437185      81.638139310670439      11.293897032299999
   162   2      2.0434131937437185      81.638139310670439      15.579784652299999
   163   1      2.1257835329719885      47.691491443914714      3.0874183849999999
   164   1      2.1257835329719885      47.691491443914714      7.1900737958000001
   165   4      2.1257835336342423      4.6212685509564615      5.2105475048000001
   166   2      2.1257835336342423      4.6212685509564615               2.9496935
   167   2      2.1257835336342423      4.6212685509564615      7.0523489108000001
   168   3      2.1307324177905564      64.951784111532561           11.8416575997
   169   3      2.1307324177905564      64.951784111532561           16.1275452197
   170   2      2.1308457070633784      21.881354031009046           13.4298776893
   171   4      2.2178638460669471      48.264787959533564      13.808564961699998
   172   2      2.2178638460669471      48.264787959533564      11.293897032299999
   173   2      2.2178638460669471      48.264787959533564      15.579784652299999
   174   2      2.2181649311102154      5.1949988318712759           13.4298776893
   175   2      2.2182089041150901      82.535856317408701      5.0635815537999997
   176   2      2.2182089045225739      39.465633423380716      5.0635815537999997
   177   3      2.3051830701137836      31.578432760395749           11.8416575997
   178   3      2.3051830701137836      31.578432760395749           16.1275452197
   179   2       2.305484155157052      74.649089419464786           13.4298776893
   180   1      2.3106342750035744      31.239775403101333      3.0874183849999999
   181   1      2.3106342750035744      31.239775403101333      7.1900737958000001
   182   4      2.3106342756658345      74.309998296874411      5.2105475048000001
   183   2      2.3106342756658345      74.309998296874411               2.9496935
   184   2      2.3106342756658345      74.309998296874411      7.0523489108000001
   185   2      2.3928033792035848      57.962734220326752           13.4298776893
   186   4      2.3929166684764049      14.892304139803237      13.808564961699998
   187   2      2.3929166684764049      14.892304139803237      11.293897032299999
   188   2      2.3929166684764049      14.892304139803237      15.579784652299999
   189   2      2.4030596461466778      66.084140276595008      5.0635815537999997
   190   2      2.4030596465543126      23.013917382567023      5.0635815537999997
   191   2      2.4799348074805829      41.275738068327783           13.4298776893
   192   3      2.4802358925235501      84.346394727396714           11.8416575997
   193   3      2.4802358925235501      84.346394727396714           16.1275452197
   194   1      2.4954850170351617      14.788059362287642      3.0874183849999999
   195   1      2.4954850170351617      14.788059362287642      7.1900737958000001
   196   4      2.4954850176974164      57.858282256060861      5.2105475048000001
   197   2      2.4954850176974164      57.858282256060861               2.9496935
   198   2      2.4954850176974164      57.858282256060861      7.0523489108000001
   199   4      2.5675551165703863      67.660039528258906      13.808564961699998
   200   2      2.5675551165703863      67.660039528258906      11.293897032299999
   201   2      2.5675551165703863      67.660039528258906      15.579784652299999
   202   2         2.5676684058429      24.589609447735388           13.4298776893
   203   2      2.5879103881784187      49.632424235781478      5.0635815537999997
   204   2      2.5879103885858998      6.5622013417537923      5.0635815537999997
   205   2      2.6549876298903499      7.9032542485975803           13.4298776893
   206   3      2.6551009191628641      50.973269954805239           11.8416575997
   207   3      2.6551009191628641      50.973269954805239           16.1275452197
   208   1      2.6803357590667445      84.476789108205423      3.0874183849999999
   209   1      2.6803357590667445      84.476789108205423      7.1900737958000001
   210   4      2.6803357597290032      41.406566215247629      5.2105475048000001
   211   2      2.6803357597290032      41.406566215247629               2.9496935
   212   2      2.6803357597290032      41.406566215247629      7.0523489108000001
   213   4      2.7420057688936117      34.286688177122016      13.808564961699998
   214   2      2.7420057688936117      34.286688177122016      11.293897032299999
   215   2      2.7420057688936117      34.286688177122016      15.579784652299999
   216   2      2.7423068539368818      77.357344836191061           13.4298776893
   217   2      2.7727611302100059      33.180708194968098      5.0635815537999997
   218   2      2.7727611306174853      76.250931087671418      5.0635815537999997
   219   2      2.8296260779837192      60.670989637053097           13.4298776893
   220   3      2.8297393672565403      17.600559556529621           11.8416575997
   221   3      2.8297393672565403      17.600559556529621           16.1275452197
   222   1      2.8651865010983366      68.025073067392199      3.0874183849999999
   223   1      2.8651865010983366      68.025073067392199      7.1900737958000001
   224   4      2.8651865017605891      24.954850174434089      5.2105475048000001
   225   2      2.8651865017605891      24.954850174434089               2.9496935
   226   2      2.8651865017605891      24.954850174434089      7.0523489108000001
   227   2      2.9167575062604127      43.983993485054093           13.4298776893
   228   4      2.9170585913036824     0.91420435739180994      13.808564961699998
   229   2      2.9170585913036824     0.91420435739180994      11.293897032299999
   230   2      2.9170585913036824     0.91420435739180994      15.579784652299999
   231   2      2.9576118722415914      16.728992154154707      5.0635815537999997
   232   2       2.957611872649073      59.799215046858038      5.0635815537999997
   233   3      3.0043778153502179       70.36829494498518           11.8416575997
   234   3      3.0043778153502179       70.36829494498518           16.1275452197
   235   2      3.0044911046227289      27.297864864461697           13.4298776893
   236   1      3.0500372431299221      51.573357026578648      3.0874183849999999
   237   1      3.0500372431299221      51.573357026578648      7.1900737958000001
   238   4      3.0500372437921768      8.5031341336207067      5.2105475048000001
   239   2      3.0500372437921768      8.5031341336207067               2.9496935
   240   2      3.0500372437921768      8.5031341336207067      7.0523489108000001
   241   2      3.0918103286701784      10.611509665323732           13.4298776893
   242   4      3.0919236179426934      53.681525371531613      13.808564961699998
   243   2      3.0919236179426934      53.681525371531613      11.293897032299999
   244   2      3.0919236179426934      53.681525371531613      15.579784652299999
   245   2      3.1424626142731791     0.27727611334117153      5.0635815537999997
   246   2      3.1424626146806585       43.34749900604465      5.0635815537999997
   247   3      3.1788284676737453      36.994943593848355           11.8416575997
   248   3      3.1788284676737453      36.994943593848355           16.1275452197
   249   2      3.1791295527170194      80.065600252917335           13.4298776893
   250   1      3.2348879851615098      35.121640985765268      3.0874183849999999
   251   1      3.2348879851615098      35.121640985765268      7.1900737958000001
   252   4       3.234887985823919      78.191863879538502      5.2105475048000001
   253   2       3.234887985823919      78.191863879538502               2.9496935
   254   2       3.234887985823919      78.191863879538502      7.0523489108000001
   255   2      3.2664487767635482      63.379245053779513           13.4298776893
   256   4      3.2665620660363675      20.308814973255998      13.808564961699998
   257   2      3.2665620660363675      20.308814973255998      11.293897032299999
   258   2      3.2665620660363675      20.308814973255998      15.579784652299999
   259   2      3.3273133563047677      69.966005859258814      5.0635815537999997
   260   2      3.3273133567124011      26.895782965230961      5.0635815537999997
   261   2      3.3535802050402417      46.692248901780353           13.4298776893
   262   3      3.3538812900835109      3.6224597741181523           11.8416575997
   263   3      3.3538812900835109      3.6224597741181523           16.1275452197
   264   1      3.4197387271930975      18.669924944951735      3.0874183849999999
   265   1      3.4197387271930975      18.669924944951735      7.1900737958000001
   266   4      3.4197387278555045      61.740147838725157      5.2105475048000001
   267   2      3.4197387278555045      61.740147838725157               2.9496935
   268   2      3.4197387278555045      61.740147838725157      7.0523489108000001
   269   4      3.4412005141300437      73.076550361711668      13.808564961699998
   270   2      3.4412005141300437      73.076550361711668      11.293897032299999
   271   2      3.4412005141300437      73.076550361711668      15.579784652299999
   272   2      3.4413138034025565       30.00612028118811           13.4298776893
   273   2      3.5121640983363531      53.514289818445569      5.0635815537999997
   274   2      3.5121640987439879       10.44406692441758      5.0635815537999997
   275   3      3.5285197381771849      56.390195162573626           11.8416575997
   276   3      3.5285197381771849      56.390195162573626           16.1275452197
   277   2         3.5286330274497       13.31976508205015           13.4298776893
   278   1       3.604589469224837      2.2182089041381965      3.0874183849999999
   279   1       3.604589469224837      2.2182089041381965      7.1900737958000001
   280   4      3.6045894698870913      45.288431797911571      5.2105475048000001
   281   2      3.6045894698870913      45.288431797911571               2.9496935
   282   2      3.6045894698870913      45.288431797911571      7.0523489108000001
   283   4      3.6156511664535751      39.703199010574664      13.808564961699998
   284   2      3.6156511664535751      39.703199010574664      11.293897032299999
   285   2      3.6156511664535751      39.703199010574664      15.579784652299999
   286   2       3.615952251496843      82.773855669643737           13.4298776893
   287   2      3.6970148403679395      37.062573777632032      5.0635815537999997
   288   2      3.6970148407755743      80.132796670335352      5.0635815537999997
   289   2      3.7032714755436804      66.087500470505773           13.4298776893
   290   3      3.7033847648161964      23.017070389982269           11.8416575997
   291   3      3.7033847648161964      23.017070389982269           16.1275452197
   292   1      3.7894402112564229      71.906938650055977      3.0874183849999999
   293   1      3.7894402112564229      71.906938650055977      7.1900737958000001
   294   4      3.7894402119188313      28.836715757097878      5.2105475048000001
   295   2      3.7894402119188313      28.836715757097878               2.9496935
   296   2      3.7894402119188313      28.836715757097878      7.0523489108000001
   297   4      3.7907039888633394      6.3307151908444563      13.808564961699998
   298   2      3.7907039888633394      6.3307151908444563      11.293897032299999
   299   2      3.7907039888633394      6.3307151908444563      15.579784652299999
   300   2      3.7908172781358518      49.400730897052071           13.4298776893
   301   2      3.8777221278672132      32.714149119368891           13.4298776893
   302   3      3.8780232129101759      75.784805778437928           11.8416575997
   303   3      3.8780232129101759      75.784805778437928           16.1275452197
   304   2      3.8818655823995272      20.610857736818343      5.0635815537999997
   305   2      3.8818655828071633       63.68108062952183      5.0635815537999997
   306   4      3.9653424369570156      59.098450579300049      13.808564961699998
   307   2      3.9653424369570156      59.098450579300049      11.293897032299999
   308   2      3.9653424369570156      59.098450579300049      15.579784652299999
   309   2      3.9654557262298349      16.028020498776495           13.4298776893
   310   1      3.9742909532880102      55.455222609242441      3.0874183849999999
   311   1      3.9742909532880102      55.455222609242441      7.1900737958000001
   312   4      3.9742909539504181      12.384999716284341      5.2105475048000001
   313   2      3.9742909539504181      12.384999716284341               2.9496935
   314   2      3.9742909539504181      12.384999716284341      7.0523489108000001
   315   3      4.0524738652337096      42.411454427300974           11.8416575997
   316   3      4.0524738652337096      42.411454427300974           16.1275452197
   317   2      4.0527749502769783       85.48211108636994           13.4298776893
   318   2      4.0667163244311135      4.1591416960051104      5.0635815537999997
   319   2      4.0667163248387483      47.229364588708442      5.0635815537999997
   320   2      4.1400941743235089      68.795755887232119           13.4298776893
   321   4      4.1402074635960249      25.725325806708568      13.808564961699998
   322   2      4.1402074635960249      25.725325806708568      11.293897032299999
   323   2      4.1402074635960249      25.725325806708568      15.579784652299999
   324   1      4.1591416953197227      39.003506568428904      3.0874183849999999
   325   1      4.1591416953197227      39.003506568428904      7.1900737958000001
   326   4      4.1591416959820062      82.073729462202138      5.2105475048000001
   327   2      4.1591416959820062      82.073729462202138               2.9496935
   328   2      4.1591416959820062      82.073729462202138      7.0523489108000001
   329   3      4.2275266876431674      9.0389706075706844           11.8416575997
   330   3      4.2275266876431674      9.0389706075706844           16.1275452197
   331   2      4.2276399769159871      52.108986313778487           13.4298776893
   332   2      4.2515670664627008      73.847871441922891      5.0635815537999997
   333   2      4.2515670668703347      30.777648547894902      5.0635815537999997
   334   2      4.3145448266467366      35.422404536095279           13.4298776893
   335   4      4.3148459116900071      78.493061195164202      13.808564961699998
   336   2      4.3148459116900071      78.493061195164202      11.293897032299999
   337   2      4.3148459116900071      78.493061195164202      15.579784652299999
   338   1      4.3439924373513374       22.55179052761552      3.0874183849999999
   339   1      4.3439924373513374       22.55179052761552      7.1900737958000001
   340   4      4.3439924380135908      65.622013421388743      5.2105475048000001
   341   2      4.3439924380135908      65.622013421388743               2.9496935
   342   2      4.3439924380135908      65.622013421388743      7.0523489108000001
   343   3      4.4021651357368432      61.806705996026317           11.8416575997
   344   3      4.4021651357368432      61.806705996026317           16.1275452197
   345   2      4.4022784250096629      18.736275915502798           13.4298776893
   346   2      4.4364178084944417      57.396155401109048      5.0635815537999997
   347   2      4.4364178089019228      14.325932507081518      5.0635815537999997
   348   4      4.4892965640135367      45.119709844027312      13.808564961699998
   349   2      4.4892965640135367      45.119709844027312      11.293897032299999
   350   2      4.4892965640135367      45.119709844027312      15.579784652299999
   351   2      4.4895976490568072      2.0499207163650288           13.4298776893
   352   1      4.5288431793829256      6.1000744868019821      3.0874183849999999
   353   1      4.5288431793829256      6.1000744868019821      7.1900737958000001
   354   4      4.5288431800451798       49.17029738057505      5.2105475048000001
   355   2      4.5288431800451798       49.17029738057505               2.9496935
   356   2      4.5288431800451798       49.17029738057505      7.0523489108000001
   357   2      4.5769168731033387      71.504011303958549           13.4298776893