(written by ASE)

26579 atoms
4 atom types

0.0      171.40060157484123  xlo xhi
0.0      171.40060157484123  ylo yhi
0.0      63.177851719700001  zlo zhi

Masses

     1       137.3269999646734 # Ba
     2      15.998999995884349 # O
     3      207.19999994669897 # Pb
     4      47.866999987686484 # Ti

Atoms # atomic

     1   3  1.1035837284365916e-05      117.84612379802212           11.8416575997
     2   3  1.1035837284365916e-05      117.84612379802212           16.1275452197
     3   3  4.4774700617614192e-05      74.921856235592699           11.8416575997
     4   3  4.4774700617614192e-05      74.921856235592699           16.1275452197
     5   4  6.6846374874857993e-05      139.21350225679618      13.808564961699998
     6   2  6.6846374874857993e-05      139.21350225679618      11.293897032299999
     7   2  6.6846374874857993e-05      139.21350225679618      15.579784652299999
     8   3  8.8918049437090684e-05      32.104546703157745           11.8416575997
     9   3  8.8918049437090684e-05      32.104546703157745           16.1275452197
    10   3  0.00013306139846536109      160.68783874556391           11.8416575997
    11   3  0.00013306139846536109      160.68783874556391           16.1275452197
    12   4  0.00015513307305718013      53.578883191925776      13.808564961699998
    13   2  0.00015513307305718013      53.578883191925776      11.293897032299999
    14   2  0.00015513307305718013      53.578883191925776      15.579784652299999
    15   4  0.00043292305842952179      96.338045524580409      13.808564961699998
    16   2  0.00043292305842952179      96.338045524580409      11.293897032299999
    17   2  0.00043292305842952179      96.338045524580409      15.579784652299999
    18   4   0.0014974142466650541      10.635942890361465      13.808564961699998
    19   2   0.0014974142466650541      10.635942890361465      11.293897032299999
    20   2   0.0014974142466650541      10.635942890361465      15.579784652299999
    21   4    0.069675040990922629      45.079751715119386      5.2105475048000001
    22   2    0.069675040990922629      45.079751715119386               2.9496935
    23   2    0.069675040990922629      45.079751715119386      7.0523489108000001
    24   4    0.069675040991231577       102.2132855733999      5.2105475048000001
    25   2    0.069675040991231577       102.2132855733999               2.9496935
    26   2    0.069675040991231577       102.2132855733999      7.0523489108000001
    27   4    0.069675040991231688      159.34681943168042      5.2105475048000001
    28   2    0.069675040991231688      159.34681943168042               2.9496935
    29   2    0.069675040991231688      159.34681943168042      7.0523489108000001
    30   2    0.069675041221713613      16.512984785479336      5.0635815537999997
    31   2    0.069675041221710754      73.646518643759862      5.0635815537999997
    32   2    0.069675041221715042      130.78005250204012      5.0635815537999997
    33   2    0.083643083274630034      73.071791305710789           13.4298776893
    34   2    0.083909206071459297      51.646265647155445           13.4298776893
    35   2    0.084441451665738007      8.7952143300465746           13.4298776893
    36   2    0.084707574461960033      158.77029024633339           13.4298776893
    37   2    0.084973697258788589      137.34476458777837           13.4298776893
    38   2    0.085505942853075168      94.493713270668877           13.4298776893
    39   2     0.14034931069842904       30.14211300064396           13.4298776893
    40   2     0.14141380188606154      115.84061194126687           13.4298776893
    41   2     0.20902512407161303      106.67248821622778      5.0635815537999997
    42   2     0.20902512407190729      49.538954357946807      5.0635815537999997
    43   2     0.20902512407190685      163.80602207450789      5.0635815537999997
    44   1     0.20902512430208706      20.972187428307372      3.0874183849999999
    45   1     0.20902512430208706      20.972187428307372      7.1900737958000001
    46   1     0.20902512430239181      78.105721286587908      3.0874183849999999
    47   1     0.20902512430239181      78.105721286587908      7.1900737958000001
    48   1     0.20902512430239109      135.23925514486828      3.0874183849999999
    49   1     0.20902512430239109      135.23925514486828      7.1900737958000001
    50   3     0.25928614072810985      71.139983796519402           11.8416575997
    51   3     0.25928614072810985      71.139983796519402           16.1275452197
    52   3     0.25981838632177184      28.288932479410231           11.8416575997
    53   3     0.25981838632177184      28.288932479410231           16.1275452197
    54   4     0.26008450911860298      6.8634068208557997      13.808564961699998
    55   2     0.26008450911860298      6.8634068208557997      11.293897032299999
    56   2     0.26008450911860298      6.8634068208557997      15.579784652299999
    57   3     0.26035063191604313      156.83848273714202           11.8416575997
    58   3     0.26035063191604313      156.83848273714202           16.1275452197
    59   3     0.26088287751031125      113.98743142003285           11.8416575997
    60   3     0.26088287751031125      113.98743142003285           16.1275452197
    61   4     0.26114900030713867      92.561905761477817      13.808564961699998
    62   2     0.26114900030713867      92.561905761477817      11.293897032299999
    63   2     0.26114900030713867      92.561905761477817      15.579784652299999
    64   4     0.30933929822745282      49.646642230795415      13.808564961699998
    65   2     0.30933929822745282      49.646642230795415      11.293897032299999
    66   2     0.30933929822745282      49.646642230795415      15.579784652299999
    67   4     0.31040378941569607      135.34514117141833      13.808564961699998
    68   2     0.31040378941569607      135.34514117141833      11.293897032299999
    69   2     0.31040378941569607      135.34514117141833      15.579784652299999
    70   4     0.34837520615362189      53.998157000313874      5.2105475048000001
    71   2     0.34837520615362189      53.998157000313874               2.9496935
    72   2     0.34837520615362189      53.998157000313874      7.0523489108000001
    73   4     0.34837520615362499       111.1316908585944      5.2105475048000001
    74   2     0.34837520615362499       111.1316908585944               2.9496935
    75   2     0.34837520615362499       111.1316908585944      7.0523489108000001
    76   4     0.34837520615363105      168.26522471687491      5.2105475048000001
    77   2     0.34837520615363105      168.26522471687491               2.9496935
    78   2     0.34837520615363105      168.26522471687491      7.0523489108000001
    79   2     0.34837520638380221      25.431390070674592      5.0635815537999997
    80   2     0.34837520638410507      139.69845778723561      5.0635815537999997
    81   2     0.34837520638440378      82.564923928954514      5.0635815537999997
    82   2     0.43519532097841218       47.78265062877329           13.4298776893
    83   2     0.43546144377585427      26.357124970219459           13.4298776893
    84   2     0.43572756657207751      4.9315993116644155           13.4298776893
    85   2     0.43625981216634901      133.48114956939619           13.4298776893
    86   2     0.43652593496318515      112.05562391084206           13.4298776893
    87   2     0.43679205776061658      90.630098252286729           13.4298776893
    88   2     0.47832928575769496       69.15117146094741           13.4298776893
    89   2     0.47939377694533658       154.8496704015698           13.4298776893
    90   2     0.48772528923399788       1.323825784861846      5.0635815537999997
    91   2     0.48772528923399466      58.457359643142212      5.0635815537999997
    92   2     0.48772528923400105      115.59089350142258      5.0635815537999997
    93   1     0.48772528946475396      144.15766043006425      3.0874183849999999
    94   1     0.48772528946475396      144.15766043006425      7.1900737958000001
    95   1     0.48772528946478622      29.890592713502322      3.0874183849999999
    96   1     0.48772528946478622      29.890592713502322      7.1900737958000001
    97   1     0.48772528946478222      87.024126571782688      3.0874183849999999
    98   1     0.48772528946478222      87.024126571782688      7.1900737958000001
    99   3     0.61057225563505735      67.276368778137552           11.8416575997
   100   3     0.61057225563505735      67.276368778137552           16.1275452197
   101   4     0.61083837843127953      45.850843119582507      13.808564961699998
   102   2     0.61083837843127953      45.850843119582507      11.293897032299999
   103   2     0.61083837843127953      45.850843119582507      15.579784652299999
   104   3     0.61110450122871818      24.425317461028076           11.8416575997
   105   3     0.61110450122871818      24.425317461028076           16.1275452197
   106   3     0.61163674682238733      152.97486771875984           11.8416575997
   107   3     0.61163674682238733      152.97486771875984           16.1275452197
   108   4     0.61190286961982754      131.54934206020542      13.808564961699998
   109   2     0.61190286961982754      131.54934206020542      11.293897032299999
   110   2     0.61190286961982754      131.54934206020542      15.579784652299999
   111   3     0.61216899241666201      110.12381640165039           11.8416575997
   112   3     0.61216899241666201      110.12381640165039           16.1275452197
   113   4     0.62707537131571389      5.7830284272290671      5.2105475048000001
   114   2     0.62707537131571389      5.7830284272290671               2.9496935
   115   2     0.62707537131571389      5.7830284272290671      7.0523489108000001
   116   4     0.62707537131571522      62.916562285508981      5.2105475048000001
   117   2     0.62707537131571522      62.916562285508981               2.9496935
   118   2     0.62707537131571522      62.916562285508981      7.0523489108000001
   119   4     0.62707537131571833       120.0500961437895      5.2105475048000001
   120   2     0.62707537131571833       120.0500961437895               2.9496935
   121   2     0.62707537131571833       120.0500961437895      7.0523489108000001
   122   2     0.62707537154650139      34.349795355869375      5.0635815537999997
   123   2     0.62707537154650395      91.483329214149762      5.0635815537999997
   124   2     0.62707537154650672      148.61686307243014      5.0635815537999997
   125   4     0.64265108850396913      2.9550727681008744      13.808564961699998
   126   2     0.64265108850396913      2.9550727681008744      11.293897032299999
   127   2     0.64265108850396913      2.9550727681008744      15.579784652299999
   128   4     0.64371557969190141      88.653571708723561      13.808564961699998
   129   2     0.64371557969190141      88.653571708723561      11.293897032299999
   130   2     0.64371557969190141      88.653571708723561      15.579784652299999
   131   2     0.76642545439639276      10.242231070057253      5.0635815537999997
   132   2     0.76642545439639409      67.375764928337475      5.0635815537999997
   133   2     0.76642545439670118      124.50929878661724      5.0635815537999997
   134   1     0.76642545462688871       153.0760657152583      3.0874183849999999
   135   1     0.76642545462688871       153.0760657152583      7.1900737958000001
   136   1     0.76642545462717915      38.808997998697194      3.0874183849999999
   137   1     0.76642545462717915      38.808997998697194      7.1900737958000001
   138   1     0.76642545462718059      95.942531856977638      3.0874183849999999
   139   1     0.76642545462718059      95.942531856977638      7.1900737958000001
   140   2     0.78621531308913928      65.344561268946165           13.4298776893
   141   2     0.78648143588475095      43.919035610391433           13.4298776893
   142   2     0.78701368147902562      1.0679842932819525           13.4298776893
   143   2     0.78727980427586697      151.04306020956909           13.4298776893
   144   2     0.78754592707268778      129.61753455101436           13.4298776893
   145   2     0.78807817266696134      86.766483233904864           13.4298776893
   146   2     0.81270556722184062      108.15810093887507           13.4298776893
   147   2     0.81377005840917205      22.455998304656717           13.4298776893
   148   4     0.90577553647841291      14.701433712423446      5.2105475048000001
   149   2     0.90577553647841291      14.701433712423446               2.9496935
   150   2     0.90577553647841291      14.701433712423446      7.0523489108000001
   151   4     0.90577553647841158      71.834967570704009      5.2105475048000001
   152   2     0.90577553647841158      71.834967570704009               2.9496935
   153   2     0.90577553647841158      71.834967570704009      7.0523489108000001
   154   4     0.90577553647840536      128.96850142898415      5.2105475048000001
   155   2     0.90577553647840536      128.96850142898415               2.9496935
   156   2     0.90577553647840536      128.96850142898415      7.0523489108000001
   157   2     0.90577553670858846      43.268200641064801      5.0635815537999997
   158   2      0.9057755367085929      100.40173449934471      5.0635815537999997
   159   2     0.90577553670858701      157.53526835762526      5.0635815537999997
   160   3      0.9618583705426107      63.412753759755091           11.8416575997
   161   3      0.9618583705426107      63.412753759755091           16.1275452197
   162   3     0.96239061613566756      20.561702442645917           11.8416575997
   163   3     0.96239061613566756      20.561702442645917           16.1275452197
   164   4     0.96265673893249137      170.53677835893305      13.808564961699998
   165   2     0.96265673893249137      170.53677835893305      11.293897032299999
   166   2     0.96265673893249137      170.53677835893305      15.579784652299999
   167   3     0.96292286172933605      149.11125270037769           11.8416575997
   168   3     0.96292286172933605      149.11125270037769           16.1275452197
   169   3      0.9634551073236054      106.26020138326854           11.8416575997
   170   3      0.9634551073236054      106.26020138326854           16.1275452197
   171   4     0.96372123012042787      84.834675724714103      13.808564961699998
   172   2     0.96372123012042787      84.834675724714103      11.293897032299999
   173   2     0.96372123012042787      84.834675724714103      15.579784652299999
   174   4     0.98169555475147707      127.66263016902676      13.808564961699998
   175   2     0.98169555475147707      127.66263016902676      11.293897032299999
   176   2     0.98169555475147707      127.66263016902676      15.579784652299999
   177   4     0.98276004593941213      41.960527534807646      13.808564961699998
   178   2     0.98276004593941213      41.960527534807646      11.293897032299999
   179   2     0.98276004593941213      41.960527534807646      15.579784652299999
   180   2       1.045125619558789      19.160636355251551      5.0635815537999997
   181   2       1.045125619558787      76.294170213531956      5.0635815537999997
   182   2      1.0451256195587864      133.42770407181231      5.0635815537999997
   183   1      1.0451256197892713      47.727403283892521      3.0874183849999999
   184   1      1.0451256197892713      47.727403283892521      7.1900737958000001
   185   1      1.0451256197892642       104.8609371421729      3.0874183849999999
   186   1      1.0451256197892642       104.8609371421729      7.1900737958000001
   187   1      1.0451256197892747      161.99447100045356      3.0874183849999999
   188   1      1.0451256197892747      161.99447100045356      7.1900737958000001
   189   2      1.1377675507917002       40.05542059200927           13.4298776893
   190   2      1.1380336735891416      18.629894933455141           13.4298776893
   191   2      1.1382997963859622      168.60497084974196           13.4298776893
   192   2      1.1388320419796383      125.75391953263249           13.4298776893
   193   2      1.1390981647770702      104.32839387407746           13.4298776893
   194   2      1.1506855422811006      147.16715939917836           13.4298776893
   195   2       1.182110103995232      82.855199758709432           13.4298776893
   196   2      1.1823762267926705      61.429674100154919           13.4298776893
   197   4      1.1844757016405008      23.619838997618508      5.2105475048000001
   198   2      1.1844757016405008      23.619838997618508               2.9496935
   199   2      1.1844757016405008      23.619838997618508      7.0523489108000001
   200   4      1.1844757016405025      80.753372855899173      5.2105475048000001
   201   2      1.1844757016405025      80.753372855899173               2.9496935
   202   2      1.1844757016405025      80.753372855899173      7.0523489108000001
   203   4      1.1844757016405025       137.8869067141797      5.2105475048000001
   204   2      1.1844757016405025       137.8869067141797               2.9496935
   205   2      1.1844757016405025       137.8869067141797      7.0523489108000001
   206   2      1.1844757018712877       52.18660592625929      5.0635815537999997
   207   2      1.1844757018712875      109.32013978453966      5.0635815537999997
   208   2      1.1844757018712893      166.45367364282001      5.0635815537999997
   209   3      1.3131444854489482      59.549138741372929           11.8416575997
   210   3      1.3131444854489482      59.549138741372929           16.1275452197
   211   4      1.3134106082457857      38.123613082818494      13.808564961699998
   212   2      1.3134106082457857      38.123613082818494      11.293897032299999
   213   2      1.3134106082457857      38.123613082818494      15.579784652299999
   214   3      1.3136767310426154      16.698087424264063           11.8416575997
   215   3      1.3136767310426154      16.698087424264063           16.1275452197
   216   3      1.3142089766362746      145.24763768199585           11.8416575997
   217   3      1.3142089766362746      145.24763768199585           16.1275452197
   218   4      1.3144750994331167       123.8221120234417      13.808564961699998
   219   2      1.3144750994331167       123.8221120234417      11.293897032299999
   220   2      1.3144750994331167       123.8221120234417      15.579784652299999
   221   3      1.3147412222311603      102.39658636488667           11.8416575997
   222   3      1.3147412222311603      102.39658636488667           16.1275452197
   223   4      1.3150073450273874       80.97106070633194      13.808564961699998
   224   2      1.3150073450273874       80.97106070633194      11.293897032299999
   225   2      1.3150073450273874       80.97106070633194      15.579784652299999
   226   4      1.3160718362153119      166.66955964695424      13.808564961699998
   227   2      1.3160718362153119      166.66955964695424      11.293897032299999
   228   2      1.3160718362153119      166.66955964695424      15.579784652299999
   229   2      1.3238257847211816       28.07904164044654      5.0635815537999997
   230   2       1.323825784721183      85.212575498726906      5.0635815537999997
   231   2      1.3238257847211792      142.34610935700758      5.0635815537999997
   232   1       1.323825784951663      56.645808569087322      3.0874183849999999
   233   1       1.323825784951663      56.645808569087322      7.1900737958000001
   234   1      1.3238257849516695      113.77934242736785      3.0874183849999999
   235   1      1.3238257849516695      113.77934242736785      7.1900737958000001
   236   1      1.3238257849516621      170.91287628564808      3.0874183849999999
   237   1      1.3238257849516621      170.91287628564808      7.1900737958000001
   238   4      1.4631758668025898      89.671778141094293      5.2105475048000001
   239   2      1.4631758668025898      89.671778141094293               2.9496935
   240   2      1.4631758668025898      89.671778141094293      7.0523489108000001
   241   4      1.4631758668026036      146.80531199937511      5.2105475048000001
   242   2      1.4631758668026036      146.80531199937511               2.9496935
   243   2      1.4631758668026036      146.80531199937511      7.0523489108000001
   244   4      1.4631758668032022      32.538244282813416      5.2105475048000001
   245   2      1.4631758668032022      32.538244282813416               2.9496935
   246   2      1.4631758668032022      32.538244282813416      7.0523489108000001
   247   2      1.4631758670333803      3.9714773531739453      5.0635815537999997
   248   2      1.4631758670333772       61.10501121145424      5.0635815537999997
   249   2      1.4631758670333841      118.23854506973491      5.0635815537999997
   250   2       1.488787542902426      57.617331232182764           13.4298776893
   251   2      1.4890536656992552       36.19180557362742           13.4298776893
   252   2      1.4893197884960903      14.766279915073287           13.4298776893
   253   2      1.4895859112929115      164.74135583135953           13.4298776893
   254   2      1.4898520340903643      143.31583017280477           13.4298776893
   255   2      1.4901181568865864      121.89030451425003           13.4298776893
   256   2      1.4903842796840265       100.4647788556956           13.4298776893
   257   2       1.490650402480858      79.039253197140852           13.4298776893
   258   2      1.6025259498832742      94.130980783922467      5.0635815537999997
   259   2      1.6025259498835758      36.997446925641647      5.0635815537999997
   260   2      1.6025259498835684      151.26451464220239      5.0635815537999997
   261   1      1.6025259501140579      8.4306799960022065      3.0874183849999999
   262   1      1.6025259501140579      8.4306799960022065      7.1900737958000001
   263   1      1.6025259501140616      65.564213854282414      3.0874183849999999
   264   1      1.6025259501140616      65.564213854282414      7.1900737958000001
   265   1      1.6025259501140652      122.69774771256294      3.0874183849999999
   266   1      1.6025259501140652      122.69774771256294      7.1900737958000001
   267   4      1.6641644775584603       77.11104938154611      13.808564961699998
   268   2      1.6641644775584603       77.11104938154611      11.293897032299999
   269   2      1.6641644775584603       77.11104938154611      15.579784652299999
   270   3      1.6644306003558977      55.685523722990773           11.8416575997
   271   3      1.6644306003558977      55.685523722990773           16.1275452197
   272   4      1.6646967231521237      34.259998064436942      13.808564961699998
   273   2      1.6646967231521237      34.259998064436942      11.293897032299999
   274   2      1.6646967231521237      34.259998064436942      15.579784652299999
   275   3      1.6649628459495647      12.834472405881598           11.8416575997
   276   3      1.6649628459495647      12.834472405881598           16.1275452197
   277   4      1.6652289687457915      162.80954832216872      13.808564961699998
   278   2      1.6652289687457915      162.80954832216872      11.293897032299999
   279   2      1.6652289687457915      162.80954832216872      15.579784652299999
   280   3      1.6654950915432252      141.38402266361402           11.8416575997
   281   3      1.6654950915432252      141.38402266361402           16.1275452197
   282   4      1.6657612143406713      119.95849700505956      13.808564961699998
   283   2      1.6657612143406713      119.95849700505956      11.293897032299999
   284   2      1.6657612143406713      119.95849700505956      15.579784652299999
   285   3      1.6660273371375045       98.53297134650451           11.8416575997
   286   3      1.6660273371375045       98.53297134650451           16.1275452197
   287   4      1.7418760319652942      41.456649568008864      5.2105475048000001
   288   2      1.7418760319652942      41.456649568008864               2.9496935
   289   2      1.7418760319652942      41.456649568008864      7.0523489108000001
   290   4      1.7418760319652855      98.590183426288775      5.2105475048000001
   291   2      1.7418760319652855      98.590183426288775               2.9496935
   292   2      1.7418760319652855      98.590183426288775      7.0523489108000001
   293   4        1.74187603196529      155.72371728456946      5.2105475048000001
   294   2        1.74187603196529      155.72371728456946               2.9496935
   295   2        1.74187603196529      155.72371728456946      7.0523489108000001
   296   2      1.7418760321954712      70.023416496649645      5.0635815537999997
   297   2      1.7418760321957749       12.88988263836897      5.0635815537999997
   298   2        1.74187603219577      127.15695035493017      5.0635815537999997
   299   2      1.8398075350119341      75.179241872354737           13.4298776893
   300   2      1.8400736578093742      53.753716213800296           13.4298776893
   301   2      1.8403397806055992      32.328190555245563           13.4298776893
   302   2       1.840605903403038      10.902664896691432           13.4298776893
   303   2      1.8408720261998603      160.87774081297735           13.4298776893
   304   2      1.8411381489960914      139.45221515442293           13.4298776893
   305   2      1.8414042717935375      118.02668949586847           13.4298776893
   306   2      1.8416703945909711      96.601163837313749           13.4298776893
   307   2      1.8812261150456666      45.915852210837052      5.0635815537999997
   308   2      1.8812261150456626      103.04938606911757      5.0635815537999997
   309   2      1.8812261150456748      160.18291992739748      5.0635815537999997
   310   1       1.881226115276454        17.3490852811967      3.0874183849999999
   311   1       1.881226115276454        17.3490852811967      7.1900737958000001
   312   1      1.8812261152764567      74.482619139477222      3.0874183849999999
   313   1      1.8812261152764567      74.482619139477222      7.1900737958000001
   314   1       1.881226115276456      131.61615299775758      3.0874183849999999
   315   1       1.881226115276456      131.61615299775758      7.1900737958000001
   316   4      2.0154505924654109       73.24743436316426      13.808564961699998
   317   2      2.0154505924654109       73.24743436316426      11.293897032299999
   318   2      2.0154505924654109       73.24743436316426      15.579784652299999
   319   3      2.0157167152628492      51.821908704609221           11.8416575997
   320   3      2.0157167152628492      51.821908704609221           16.1275452197
   321   4      2.0159828380590712      30.396383046054787      13.808564961699998
   322   2      2.0159828380590712      30.396383046054787      11.293897032299999
   323   2      2.0159828380590712      30.396383046054787      15.579784652299999
   324   4      2.0165150836533519      158.94593330378655      13.808564961699998
   325   2      2.0165150836533519      158.94593330378655      11.293897032299999
   326   2      2.0165150836533519      158.94593330378655      15.579784652299999
   327   3      2.0167812064501738      137.52040764523184           11.8416575997
   328   3      2.0167812064501738      137.52040764523184           16.1275452197
   329   4      2.0170473292470148      116.09488198667709      13.808564961699998
   330   2      2.0170473292470148      116.09488198667709      11.293897032299999
   331   2      2.0170473292470148      116.09488198667709      15.579784652299999
   332   3      2.0173134520444473      94.669356328122348           11.8416575997
   333   3      2.0173134520444473      94.669356328122348           16.1275452197
   334   4      2.0205761971276881      50.375054853203359      5.2105475048000001
   335   2      2.0205761971276881      50.375054853203359               2.9496935
   336   2      2.0205761971276881      50.375054853203359      7.0523489108000001
   337   4      2.0205761971276837      107.50858871148392      5.2105475048000001
   338   2      2.0205761971276837      107.50858871148392               2.9496935
   339   2      2.0205761971276837      107.50858871148392      7.0523489108000001
   340   4      2.0205761971278533      164.64212256976498      5.2105475048000001
   341   2      2.0205761971278533      164.64212256976498               2.9496935
   342   2      2.0205761971278533      164.64212256976498      7.0523489108000001
   343   2      2.0205761973581717       21.80828792356392      5.0635815537999997
   344   2      2.0205761973581713      78.941821781844297      5.0635815537999997
   345   2      2.0205761973581704      136.07535564012466      5.0635815537999997
   346   3      2.0930584952863098      8.8655298331502923           11.8416575997
   347   3      2.0930584952863098      8.8655298331502923           16.1275452197
   348   2      2.1599262802080603      54.834257496031697      5.0635815537999997
   349   2      2.1599262802080577      111.96779135431237      5.0635815537999997
   350   2      2.1599262802080563       169.1013252125926      5.0635815537999997
   351   1      2.1599262804385426      26.267490566392258      3.0874183849999999
   352   1      2.1599262804385426      26.267490566392258      7.1900737958000001
   353   1      2.1599262804385408      83.401024424672642      3.0874183849999999
   354   1      2.1599262804385408      83.401024424672642      7.1900737958000001
   355   1       2.159926280438849      140.53455828295284      3.0874183849999999
   356   1       2.159926280438849      140.53455828295284      7.1900737958000001
   357   2      2.1910936499194849      71.315626853972574           13.4298776893