(written by ASE)

26579 atoms
4 atom types

0.0      171.40060157484123  xlo xhi
0.0      171.40060157484123  ylo yhi
0.0      63.177851719700001  zlo zhi

Masses

     1       137.3269999646734 # Ba
     2      15.998999995884349 # O
     3      207.19999994669897 # Pb
     4      47.866999987686484 # Ti

Atoms # atomic

     1   2  5.9790348560227217e-06      139.21752060362073           13.4298776893
     2   2  4.3237642715222406e-05      74.965141716711273           13.4298776893
     3   2  0.00010510458971359851      117.80409398996714           13.4298776893
     4   2   0.0001423631975583181      53.551715103057525           13.4298776893
     5   2  0.00016697153630492614      160.64304626322377           13.4298776893
     6   2  0.00022883848322101917      32.081396961638518           13.4298776893
     7   2    0.017826237821085583      10.637332556028365           13.4298776893
     8   2    0.022073909805546663      96.338147254427042           13.4298776893
     9   4    0.069675040990922629      45.079751715119386      5.2105475048000001
    10   2    0.069675040990922629      45.079751715119386               2.9496935
    11   2    0.069675040990922629      45.079751715119386      7.0523489108000001
    12   4    0.069675040991231577       102.2132855733999      5.2105475048000001
    13   2    0.069675040991231577       102.2132855733999               2.9496935
    14   2    0.069675040991231577       102.2132855733999      7.0523489108000001
    15   4    0.069675040991231688      159.34681943168042      5.2105475048000001
    16   2    0.069675040991231688      159.34681943168042               2.9496935
    17   2    0.069675040991231688      159.34681943168042      7.0523489108000001
    18   2    0.069675041221713613      16.512984785479336      5.0635815537999997
    19   2    0.069675041221710754      73.646518643759862      5.0635815537999997
    20   2    0.069675041221715042      130.78005250204012      5.0635815537999997
    21   3    0.095776010937830752      98.314513289734407           11.8416575997
    22   3    0.095776010937830752      98.314513289734407           16.1275452197
    23   4    0.095937003438976834      119.74003894933713      13.808564961699998
    24   2    0.095937003438976834      119.74003894933713      11.293897032299999
    25   2    0.095937003438976834      119.74003894933713      15.579784652299999
    26   3    0.096097995940731207      141.16556460893923           11.8416575997
    27   3    0.096097995940731207      141.16556460893923           16.1275452197
    28   4    0.096258988442476448      162.59109026854227      13.808564961699998
    29   2    0.096258988442476448      162.59109026854227      11.293897032299999
    30   2    0.096258988442476448      162.59109026854227      15.579784652299999
    31   3    0.096419980944235609       12.61601435330342           11.8416575997
    32   3    0.096419980944235609       12.61601435330342           16.1275452197
    33   4    0.096580973445382232      34.041540012906445      13.808564961699998
    34   2    0.096580973445382232      34.041540012906445      11.293897032299999
    35   2    0.096580973445382232      34.041540012906445      15.579784652299999
    36   3    0.096741965947137853      55.467065672508248           11.8416575997
    37   3    0.096741965947137853      55.467065672508248           16.1275452197
    38   4     0.09690295844828091      76.892591332111266      13.808564961699998
    39   2     0.09690295844828091      76.892591332111266      11.293897032299999
    40   2     0.09690295844828091      76.892591332111266      15.579784652299999
    41   2     0.20902512407161303      106.67248821622778      5.0635815537999997
    42   2     0.20902512407190729      49.538954357946807      5.0635815537999997
    43   2     0.20902512407190685      163.80602207450789      5.0635815537999997
    44   1     0.20902512430208706      20.972187428307372      3.0874183849999999
    45   1     0.20902512430208706      20.972187428307372      7.1900737958000001
    46   1     0.20902512430239181      78.105721286587908      3.0874183849999999
    47   1     0.20902512430239181      78.105721286587908      7.1900737958000001
    48   1     0.20902512430239109      135.23925514486828      3.0874183849999999
    49   1     0.20902512430239109      135.23925514486828      7.1900737958000001
    50   2     0.27140958943883892      100.24632166074375           13.4298776893
    51   2     0.27157058194058192      121.67184732034616           13.4298776893
    52   2     0.27173157444233964      143.09737297994889           13.4298776893
    53   2     0.27189256694287717      164.52289863955127           13.4298776893
    54   2     0.27205355944524334       14.54782272431275           13.4298776893
    55   2     0.27221455194638638      35.973348383915166           13.4298776893
    56   2     0.27237554444875411       57.39887404351758           13.4298776893
    57   2     0.27253653694929392      78.824399703119994           13.4298776893
    58   4     0.34837520615362189      53.998157000313874      5.2105475048000001
    59   2     0.34837520615362189      53.998157000313874               2.9496935
    60   2     0.34837520615362189      53.998157000313874      7.0523489108000001
    61   4     0.34837520615362499       111.1316908585944      5.2105475048000001
    62   2     0.34837520615362499       111.1316908585944               2.9496935
    63   2     0.34837520615362499       111.1316908585944      7.0523489108000001
    64   4     0.34837520615363105      168.26522471687491      5.2105475048000001
    65   2     0.34837520615363105      168.26522471687491               2.9496935
    66   2     0.34837520615363105      168.26522471687491      7.0523489108000001
    67   2     0.34837520638380221      25.431390070674592      5.0635815537999997
    68   2     0.34837520638410507      139.69845778723561      5.0635815537999997
    69   2     0.34837520638440378      82.564923928954514      5.0635815537999997
    70   3     0.44704316794044396      102.17813003175277           11.8416575997
    71   3     0.44704316794044396      102.17813003175277           16.1275452197
    72   4     0.44720416044097672      123.60365569135519      13.808564961699998
    73   2     0.44720416044097672      123.60365569135519      11.293897032299999
    74   2     0.44720416044097672      123.60365569135519      15.579784652299999
    75   3     0.44736515294335749       145.0291813509576           11.8416575997
    76   3     0.44736515294335749       145.0291813509576           16.1275452197
    77   4     0.44752614544449987      166.45470701056095      13.808564961699998
    78   2     0.44752614544449987      166.45470701056095      11.293897032299999
    79   2     0.44752614544449987      166.45470701056095      15.579784652299999
    80   3     0.44768713794625181       16.47963109532208           11.8416575997
    81   3     0.44768713794625181       16.47963109532208           16.1275452197
    82   4     0.44784813044678407      37.905156754924498      13.808564961699998
    83   2     0.44784813044678407      37.905156754924498      11.293897032299999
    84   2     0.44784813044678407      37.905156754924498      15.579784652299999
    85   3     0.44800912294914891      59.330682414526606           11.8416575997
    86   3     0.44800912294914891      59.330682414526606           16.1275452197
    87   4     0.44817011545029739      80.756208074129319      13.808564961699998
    88   2     0.44817011545029739      80.756208074129319      11.293897032299999
    89   2     0.44817011545029739      80.756208074129319      15.579784652299999
    90   2     0.48772528923399788       1.323825784861846      5.0635815537999997
    91   2     0.48772528923399466      58.457359643142212      5.0635815537999997
    92   2     0.48772528923400105      115.59089350142258      5.0635815537999997
    93   1     0.48772528946475396      144.15766043006425      3.0874183849999999
    94   1     0.48772528946475396      144.15766043006425      7.1900737958000001
    95   1     0.48772528946478622      29.890592713502322      3.0874183849999999
    96   1     0.48772528946478622      29.890592713502322      7.1900737958000001
    97   1     0.48772528946478222      87.024126571782688      3.0874183849999999
    98   1     0.48772528946478222      87.024126571782688      7.1900737958000001
    99   2     0.62267674644084636       104.1099384027621           13.4298776893
   100   2      0.6228377389419979      125.53546406236451           13.4298776893
   101   2     0.62299873144435258      146.96098972196694           13.4298776893
   102   2     0.62315972394550889      168.38651538156932           13.4298776893
   103   2     0.62332071644664966      18.411439466331409           13.4298776893
   104   2      0.6234817089477952       39.83696512593383           13.4298776893
   105   2     0.62364270145015754      61.262490785536237           13.4298776893
   106   2     0.62380369395130197      82.688016445138658           13.4298776893
   107   4     0.62707537131571389      5.7830284272290671      5.2105475048000001
   108   2     0.62707537131571389      5.7830284272290671               2.9496935
   109   2     0.62707537131571389      5.7830284272290671      7.0523489108000001
   110   4     0.62707537131571522      62.916562285508981      5.2105475048000001
   111   2     0.62707537131571522      62.916562285508981               2.9496935
   112   2     0.62707537131571522      62.916562285508981      7.0523489108000001
   113   4     0.62707537131571833       120.0500961437895      5.2105475048000001
   114   2     0.62707537131571833       120.0500961437895               2.9496935
   115   2     0.62707537131571833       120.0500961437895      7.0523489108000001
   116   2     0.62707537154650139      34.349795355869375      5.0635815537999997
   117   2     0.62707537154650395      91.483329214149762      5.0635815537999997
   118   2     0.62707537154650672      148.61686307243014      5.0635815537999997
   119   2     0.76642545439639276      10.242231070057253      5.0635815537999997
   120   2     0.76642545439639409      67.375764928337475      5.0635815537999997
   121   2     0.76642545439670118      124.50929878661724      5.0635815537999997
   122   1     0.76642545462688871       153.0760657152583      3.0874183849999999
   123   1     0.76642545462688871       153.0760657152583      7.1900737958000001
   124   1     0.76642545462717915      38.808997998697194      3.0874183849999999
   125   1     0.76642545462717915      38.808997998697194      7.1900737958000001
   126   1     0.76642545462718059      95.942531856977638      3.0874183849999999
   127   1     0.76642545462718059      95.942531856977638      7.1900737958000001
   128   3     0.79831032494184695      106.04174677377114           11.8416575997
   129   3     0.79831032494184695      106.04174677377114           16.1275452197
   130   4     0.79847131744300115      127.46727243337446      13.808564961699998
   131   2     0.79847131744300115      127.46727243337446      11.293897032299999
   132   2     0.79847131744300115      127.46727243337446      15.579784652299999
   133   3     0.79863230994475498      148.89279809297625           11.8416575997
   134   3     0.79863230994475498      148.89279809297625           16.1275452197
   135   4     0.79879330244590274      170.31832375257929      13.808564961699998
   136   2     0.79879330244590274      170.31832375257929      11.293897032299999
   137   2     0.79879330244590274      170.31832375257929      15.579784652299999
   138   3     0.79895429494826686      20.343247837340432           11.8416575997
   139   3     0.79895429494826686      20.343247837340432           16.1275452197
   140   4     0.79911528744941374       41.76877349694346      13.808564961699998
   141   2     0.79911528744941374       41.76877349694346      11.293897032299999
   142   2     0.79911528744941374       41.76877349694346      15.579784652299999
   143   3     0.79927627995116468       63.19429915654527           11.8416575997
   144   3     0.79927627995116468       63.19429915654527           16.1275452197
   145   4     0.79943727245231611      84.619824816147968      13.808564961699998
   146   2     0.79943727245231611      84.619824816147968      11.293897032299999
   147   2     0.79943727245231611      84.619824816147968      15.579784652299999
   148   4     0.90577553647841291      14.701433712423446      5.2105475048000001
   149   2     0.90577553647841291      14.701433712423446               2.9496935
   150   2     0.90577553647841291      14.701433712423446      7.0523489108000001
   151   4     0.90577553647841158      71.834967570704009      5.2105475048000001
   152   2     0.90577553647841158      71.834967570704009               2.9496935
   153   2     0.90577553647841158      71.834967570704009      7.0523489108000001
   154   4     0.90577553647840536      128.96850142898415      5.2105475048000001
   155   2     0.90577553647840536      128.96850142898415               2.9496935
   156   2     0.90577553647840536      128.96850142898415      7.0523489108000001
   157   2     0.90577553670858846      43.268200641064801      5.0635815537999997
   158   2      0.9057755367085929      100.40173449934471      5.0635815537999997
   159   2     0.90577553670858701      157.53526835762526      5.0635815537999997
   160   2     0.97394390344286275      107.97355514478078           13.4298776893
   161   2     0.97410489594401306      129.39908080438317           13.4298776893
   162   2     0.97426588844637374      150.82460646398559           13.4298776893
   163   2     0.97442688094751972     0.84953054874674017           13.4298776893
   164   2     0.97458787344927555      22.275056208350065           13.4298776893
   165   2     0.97474886594981236       43.70058186795157           13.4298776893
   166   2     0.97490985845217337      65.126107527554908           13.4298776893
   167   2     0.97507085095332424      86.551633187157307           13.4298776893
   168   2       1.045125619558789      19.160636355251551      5.0635815537999997
   169   2       1.045125619558787      76.294170213531956      5.0635815537999997
   170   2      1.0451256195587864      133.42770407181231      5.0635815537999997
   171   1      1.0451256197892713      47.727403283892521      3.0874183849999999
   172   1      1.0451256197892713      47.727403283892521      7.1900737958000001
   173   1      1.0451256197892642       104.8609371421729      3.0874183849999999
   174   1      1.0451256197892642       104.8609371421729      7.1900737958000001
   175   1      1.0451256197892747      161.99447100045356      3.0874183849999999
   176   1      1.0451256197892747      161.99447100045356      7.1900737958000001
   177   3      1.1495774819438698       109.9053635157901           11.8416575997
   178   3      1.1495774819438698       109.9053635157901           16.1275452197
   179   4      1.1497384744450141      131.33088917539251      13.808564961699998
   180   2      1.1497384744450141      131.33088917539251      11.293897032299999
   181   2      1.1497384744450141      131.33088917539251      15.579784652299999
   182   3      1.1498994669473879       152.7564148349949           11.8416575997
   183   3      1.1498994669473879       152.7564148349949           16.1275452197
   184   4      1.1500604594479182      2.7813389197560694      13.808564961699998
   185   2      1.1500604594479182      2.7813389197560694      11.293897032299999
   186   2      1.1500604594479182      2.7813389197560694      15.579784652299999
   187   3      1.1502214519496732       24.20686457935879           11.8416575997
   188   3      1.1502214519496732       24.20686457935879           16.1275452197
   189   4      1.1503824444514292        45.6323902389612      13.808564961699998
   190   2      1.1503824444514292        45.6323902389612      11.293897032299999
   191   2      1.1503824444514292        45.6323902389612      15.579784652299999
   192   3      1.1505434369537904      67.057915898563621           11.8416575997
   193   3      1.1505434369537904      67.057915898563621           16.1275452197
   194   4      1.1507044294543254      88.483441558166646      13.808564961699998
   195   2      1.1507044294543254      88.483441558166646      11.293897032299999
   196   2      1.1507044294543254      88.483441558166646      15.579784652299999
   197   4      1.1844757016405008      23.619838997618508      5.2105475048000001
   198   2      1.1844757016405008      23.619838997618508               2.9496935
   199   2      1.1844757016405008      23.619838997618508      7.0523489108000001
   200   4      1.1844757016405025      80.753372855899173      5.2105475048000001
   201   2      1.1844757016405025      80.753372855899173               2.9496935
   202   2      1.1844757016405025      80.753372855899173      7.0523489108000001
   203   4      1.1844757016405025       137.8869067141797      5.2105475048000001
   204   2      1.1844757016405025       137.8869067141797               2.9496935
   205   2      1.1844757016405025       137.8869067141797      7.0523489108000001
   206   2      1.1844757018712877       52.18660592625929      5.0635815537999997
   207   2      1.1844757018712875      109.32013978453966      5.0635815537999997
   208   2      1.1844757018712893      166.45367364282001      5.0635815537999997
   209   2      1.3238257847211816       28.07904164044654      5.0635815537999997
   210   2       1.323825784721183      85.212575498726906      5.0635815537999997
   211   2      1.3238257847211792      142.34610935700758      5.0635815537999997
   212   1       1.323825784951663      56.645808569087322      3.0874183849999999
   213   1       1.323825784951663      56.645808569087322      7.1900737958000001
   214   1      1.3238257849516695      113.77934242736785      3.0874183849999999
   215   1      1.3238257849516695      113.77934242736785      7.1900737958000001
   216   1      1.3238257849516621      170.91287628564808      3.0874183849999999
   217   1      1.3238257849516621      170.91287628564808      7.1900737958000001
   218   2      1.3252110604448761      111.83717188679911           13.4298776893
   219   2      1.3253720529454165      133.26269754640182           13.4298776893
   220   2      1.3255330454477783      154.68822320600427           13.4298776893
   221   2      1.3256940379495357      4.7131472907653986           13.4298776893
   222   2      1.3258550304512908      26.138672950368122           13.4298776893
   223   2      1.3260160229524327      47.564198609970234           13.4298776893
   224   2      1.3261770154541863      68.989724269572946           13.4298776893
   225   2      1.3263380079547278      90.415249929175971           13.4298776893
   226   4      1.4631758668025898      89.671778141094293      5.2105475048000001
   227   2      1.4631758668025898      89.671778141094293               2.9496935
   228   2      1.4631758668025898      89.671778141094293      7.0523489108000001
   229   4      1.4631758668026036      146.80531199937511      5.2105475048000001
   230   2      1.4631758668026036      146.80531199937511               2.9496935
   231   2      1.4631758668026036      146.80531199937511      7.0523489108000001
   232   4      1.4631758668032022      32.538244282813416      5.2105475048000001
   233   2      1.4631758668032022      32.538244282813416               2.9496935
   234   2      1.4631758668032022      32.538244282813416      7.0523489108000001
   235   2      1.4631758670333803      3.9714773531739453      5.0635815537999997
   236   2      1.4631758670333772       61.10501121145424      5.0635815537999997
   237   2      1.4631758670333841      118.23854506973491      5.0635815537999997
   238   3      1.5008446389452728      113.76898025780845           11.8416575997
   239   3      1.5008446389452728      113.76898025780845           16.1275452197
   240   4       1.501005631447641      135.19450591741116      13.808564961699998
   241   2       1.501005631447641      135.19450591741116      11.293897032299999
   242   2       1.501005631447641      135.19450591741116      15.579784652299999
   243   3      1.5011666239494024      156.62003157701326           11.8416575997
   244   3      1.5011666239494024      156.62003157701326           16.1275452197
   245   4      1.5013276164505427      6.6449556617750334      13.808564961699998
   246   2      1.5013276164505427      6.6449556617750334      11.293897032299999
   247   2      1.5013276164505427      6.6449556617750334      15.579784652299999
   248   3      1.5014886089516886       28.07048132137745           11.8416575997
   249   3      1.5014886089516886       28.07048132137745           16.1275452197
   250   4      1.5016496014528331      49.496006980979864      13.808564961699998
   251   2      1.5016496014528331      49.496006980979864      11.293897032299999
   252   2      1.5016496014528331      49.496006980979864      15.579784652299999
   253   3      1.5018105939551973      70.921532640582285           11.8416575997
   254   3      1.5018105939551973      70.921532640582285           16.1275452197
   255   4      1.5019715864563405       92.34705830018531      13.808564961699998
   256   2      1.5019715864563405       92.34705830018531      11.293897032299999
   257   2      1.5019715864563405       92.34705830018531      15.579784652299999
   258   2      1.6025259498832742      94.130980783922467      5.0635815537999997
   259   2      1.6025259498835758      36.997446925641647      5.0635815537999997
   260   2      1.6025259498835684      151.26451464220239      5.0635815537999997
   261   1      1.6025259501140579      8.4306799960022065      3.0874183849999999
   262   1      1.6025259501140579      8.4306799960022065      7.1900737958000001
   263   1      1.6025259501140616      65.564213854282414      3.0874183849999999
   264   1      1.6025259501140616      65.564213854282414      7.1900737958000001
   265   1      1.6025259501140652      122.69774771256294      3.0874183849999999
   266   1      1.6025259501140652      122.69774771256294      7.1900737958000001
   267   2      1.6763172249451401      94.275262969214751           13.4298776893
   268   2      1.6764782174468909      115.70078862881748           13.4298776893
   269   2      1.6766392099480352      137.12631428841988           13.4298776893
   270   2       1.676800202450385      158.55183994802292           13.4298776893
   271   2      1.6769611949509415      8.5767640327840589           13.4298776893
   272   2       1.677122187452696      30.002289692386778           13.4298776893
   273   2      1.6772831799538397       51.42781535198889           13.4298776893
   274   2      1.6774441724562061      72.853341011591908           13.4298776893
   275   4      1.7418760319652942      41.456649568008864      5.2105475048000001
   276   2      1.7418760319652942      41.456649568008864               2.9496935
   277   2      1.7418760319652942      41.456649568008864      7.0523489108000001
   278   4      1.7418760319652855      98.590183426288775      5.2105475048000001
   279   2      1.7418760319652855      98.590183426288775               2.9496935
   280   2      1.7418760319652855      98.590183426288775      7.0523489108000001
   281   4        1.74187603196529      155.72371728456946      5.2105475048000001
   282   2        1.74187603196529      155.72371728456946               2.9496935
   283   2        1.74187603196529      155.72371728456946      7.0523489108000001
   284   2      1.7418760321954712      70.023416496649645      5.0635815537999997
   285   2      1.7418760321957749       12.88988263836897      5.0635815537999997
   286   2        1.74187603219577      127.15695035493017      5.0635815537999997
   287   4      1.8519508034461472      96.207071340224076      13.808564961699998
   288   2      1.8519508034461472      96.207071340224076      11.293897032299999
   289   2      1.8519508034461472      96.207071340224076      15.579784652299999
   290   3      1.8521117959479043       117.6325969998265           11.8416575997
   291   3      1.8521117959479043       117.6325969998265           16.1275452197
   292   4      1.8522727884490444      139.05812265942981      13.808564961699998
   293   2      1.8522727884490444      139.05812265942981      11.293897032299999
   294   2      1.8522727884490444      139.05812265942981      15.579784652299999
   295   3      1.8524337809508065      160.48364831903223           11.8416575997
   296   3      1.8524337809508065      160.48364831903223           16.1275452197
   297   4      1.8525947734519501      10.508572403793387      13.808564961699998
   298   2      1.8525947734519501      10.508572403793387      11.293897032299999
   299   2      1.8525947734519501      10.508572403793387      15.579784652299999
   300   3      1.8527557659537046      31.934098063395805           11.8416575997
   301   3      1.8527557659537046      31.934098063395805           16.1275452197
   302   4      1.8529167584542428      53.359623722998215      13.808564961699998
   303   2      1.8529167584542428      53.359623722998215      11.293897032299999
   304   2      1.8529167584542428      53.359623722998215      15.579784652299999
   305   3      1.8530777509572121      74.785149382600636           11.8416575997
   306   3      1.8530777509572121      74.785149382600636           16.1275452197
   307   2      1.8812261150456666      45.915852210837052      5.0635815537999997
   308   2      1.8812261150456626      103.04938606911757      5.0635815537999997
   309   2      1.8812261150456748      160.18291992739748      5.0635815537999997
   310   1       1.881226115276454        17.3490852811967      3.0874183849999999
   311   1       1.881226115276454        17.3490852811967      7.1900737958000001
   312   1      1.8812261152764567      74.482619139477222      3.0874183849999999
   313   1      1.8812261152764567      74.482619139477222      7.1900737958000001
   314   1       1.881226115276456      131.61615299775758      3.0874183849999999
   315   1       1.881226115276456      131.61615299775758      7.1900737958000001
   316   4      2.0205761971276881      50.375054853203359      5.2105475048000001
   317   2      2.0205761971276881      50.375054853203359               2.9496935
   318   2      2.0205761971276881      50.375054853203359      7.0523489108000001
   319   4      2.0205761971276837      107.50858871148392      5.2105475048000001
   320   2      2.0205761971276837      107.50858871148392               2.9496935
   321   2      2.0205761971276837      107.50858871148392      7.0523489108000001
   322   4      2.0205761971278533      164.64212256976498      5.2105475048000001
   323   2      2.0205761971278533      164.64212256976498               2.9496935
   324   2      2.0205761971278533      164.64212256976498      7.0523489108000001
   325   2      2.0205761973581717       21.80828792356392      5.0635815537999997
   326   2      2.0205761973581713      78.941821781844297      5.0635815537999997
   327   2      2.0205761973581704      136.07535564012466      5.0635815537999997
   328   2      2.0275843819465438        98.1388797112334           13.4298776893
   329   2       2.027745374448906      119.56440537083613           13.4298776893
   330   2      2.0279063669494382      140.98993103043824           13.4298776893
   331   2      2.0280673594517933      162.41545669004097           13.4298776893
   332   2      2.0282283519529569      12.440380774802717           13.4298776893
   333   2      2.0283893444547116      33.865906434405439           13.4298776893
   334   2      2.0285503369558548      55.291432094007547           13.4298776893
   335   2      2.0287113294582242      76.716957753610274           13.4298776893
   336   2      2.1599262802080603      54.834257496031697      5.0635815537999997
   337   2      2.1599262802080577      111.96779135431237      5.0635815537999997
   338   2      2.1599262802080563       169.1013252125926      5.0635815537999997
   339   1      2.1599262804385426      26.267490566392258      3.0874183849999999
   340   1      2.1599262804385426      26.267490566392258      7.1900737958000001
   341   1      2.1599262804385408      83.401024424672642      3.0874183849999999
   342   1      2.1599262804385408      83.401024424672642      7.1900737958000001
   343   1       2.159926280438849      140.53455828295284      3.0874183849999999
   344   1       2.159926280438849      140.53455828295284      7.1900737958000001
   345   4      2.2032179604481694      100.07068808224273      13.808564961699998
   346   2      2.2032179604481694      100.07068808224273      11.293897032299999
   347   2      2.2032179604481694      100.07068808224273      15.579784652299999
   348   3      2.2033789529499126      121.49621374184515           11.8416575997
   349   3      2.2033789529499126      121.49621374184515           16.1275452197
   350   4      2.2035399454504523      142.92173940144755      13.808564961699998
   351   2      2.2035399454504523      142.92173940144755      11.293897032299999
   352   2      2.2035399454504523      142.92173940144755      15.579784652299999
   353   3      2.2037009379528407      164.34726506105028           11.8416575997
   354   3      2.2037009379528407      164.34726506105028           16.1275452197
   355   4      2.2038619304545723      14.372189145811742      13.808564961699998
   356   2      2.2038619304545723      14.372189145811742      11.293897032299999
   357   2      2.2038619304545723      14.372189145811742      15.579784652299999