(written by ASE)

26579 atoms
4 atom types

0.0      171.40060157484123  xlo xhi
0.0      171.40060157484123  ylo yhi
0.0      63.177851719700001  zlo zhi

Masses

     1       137.3269999646734 # Ba
     2      15.998999995884349 # O
     3      207.19999994669897 # Pb
     4      47.866999987686484 # Ti

Atoms # atomic

     1   2     1.1035836935665e-05      117.84612379802235           13.4298776893
     2   2  4.4774703657254163e-05      74.921856235591491           13.4298776893
     3   2  6.6846377003321821e-05      139.21350225679495           13.4298776893
     4   2  8.8918050732039221e-05      32.104546703157133           13.4298776893
     5   2  0.00013306139848121216      160.68783874556391           13.4298776893
     6   2  0.00015513307229347129      53.578883191926167           13.4298776893
     7   2  0.00043292306207394179      96.338045524578291           13.4298776893
     8   2   0.0014974142494044401      10.635942890359642           13.4298776893
     9   4    0.069675040990922671      45.079751715119386      5.2105475048000001
    10   2    0.069675040990922671      45.079751715119386               2.9496935
    11   2    0.069675040990922671      45.079751715119386      7.0523489108000001
    12   4    0.069675040991230647       102.2132855733999      5.2105475048000001
    13   2    0.069675040991230647       102.2132855733999               2.9496935
    14   2    0.069675040991230647       102.2132855733999      7.0523489108000001
    15   4    0.069675040991227261      159.34681943168044      5.2105475048000001
    16   2    0.069675040991227261      159.34681943168044               2.9496935
    17   2    0.069675040991227261      159.34681943168044      7.0523489108000001
    18   2    0.069675041221712961      16.512984785479336      5.0635815537999997
    19   2    0.069675041221709338      73.646518643759862      5.0635815537999997
    20   2    0.069675041221715764      130.78005250204012      5.0635815537999997
    21   3    0.083643083271585733      73.071791305706839           11.8416575997
    22   3    0.083643083271585733      73.071791305706839           16.1275452197
    23   4    0.083909206068417175      51.646265647152092      13.808564961699998
    24   2    0.083909206068417175      51.646265647152092      11.293897032299999
    25   2    0.083909206068417175      51.646265647152092      15.579784652299999
    26   4    0.084441451662084277      8.7952143300432244      13.808564961699998
    27   2    0.084441451662084277      8.7952143300432244      11.293897032299999
    28   2    0.084441451662084277      8.7952143300432244      15.579784652299999
    29   3    0.084707574458911389      158.77029024632944           11.8416575997
    30   3    0.084707574458911389      158.77029024632944           16.1275452197
    31   4    0.084973697255740402      137.34476458777439      13.808564961699998
    32   2    0.084973697255740402      137.34476458777439      11.293897032299999
    33   2    0.084973697255740402      137.34476458777439      15.579784652299999
    34   4    0.085505942850625336      94.493713270665225      13.808564961699998
    35   2    0.085505942850625336      94.493713270665225      11.293897032299999
    36   2    0.085505942850625336      94.493713270665225      15.579784652299999
    37   3     0.14034931069995207      30.142113000640915           11.8416575997
    38   3     0.14034931069995207      30.142113000640915           16.1275452197
    39   3      0.1414138018875841      115.84061194126352           11.8416575997
    40   3      0.1414138018875841      115.84061194126352           16.1275452197
    41   2     0.20902512407161342      106.67248821622778      5.0635815537999997
    42   2     0.20902512407190804      49.538954357946814      5.0635815537999997
    43   2      0.2090251240719064      163.80602207450789      5.0635815537999997
    44   1     0.20902512430208817      20.972187428307372      3.0874183849999999
    45   1     0.20902512430208817      20.972187428307372      7.1900737958000001
    46   1     0.20902512430239112      78.105721286587908      3.0874183849999999
    47   1     0.20902512430239112      78.105721286587908      7.1900737958000001
    48   1     0.20902512430239009      135.23925514486825      3.0874183849999999
    49   1     0.20902512430239009      135.23925514486825      7.1900737958000001
    50   2     0.25928614072506617      71.139983796515438           13.4298776893
    51   2     0.25981838631872495      28.288932479406583           13.4298776893
    52   2      0.2600845091155583      6.8634068208521457           13.4298776893
    53   2      0.2603506319129939      156.83848273713807           13.4298776893
    54   2      0.2608828775072739      113.98743142002951           13.4298776893
    55   2     0.26114900030410293      92.561905761474463           13.4298776893
    56   2     0.30933929822897249      49.646642230792224           13.4298776893
    57   2     0.31040378941691238      135.34514117141498           13.4298776893
    58   4     0.34837520615362311      53.998157000313874      5.2105475048000001
    59   2     0.34837520615362311      53.998157000313874               2.9496935
    60   2     0.34837520615362311      53.998157000313874      7.0523489108000001
    61   4     0.34837520615362649      111.13169085859438      5.2105475048000001
    62   2     0.34837520615362649      111.13169085859438               2.9496935
    63   2     0.34837520615362649      111.13169085859438      7.0523489108000001
    64   4     0.34837520615363665      168.26522471687491      5.2105475048000001
    65   2     0.34837520615363665      168.26522471687491               2.9496935
    66   2     0.34837520615363665      168.26522471687491      7.0523489108000001
    67   2     0.34837520638380087      25.431390070674592      5.0635815537999997
    68   2      0.3483752063841079      139.69845778723564      5.0635815537999997
    69   2     0.34837520638440417      82.564923928954514      5.0635815537999997
    70   4       0.435195320975372      47.782650628769936      13.808564961699998
    71   2       0.435195320975372      47.782650628769936      11.293897032299999
    72   2       0.435195320975372      47.782650628769936      15.579784652299999
    73   3      0.4354614437722007      26.357124970215501           11.8416575997
    74   3      0.4354614437722007      26.357124970215501           16.1275452197
    75   4     0.43572756656903228       4.931599311661067      13.808564961699998
    76   2     0.43572756656903228       4.931599311661067      11.293897032299999
    77   2     0.43572756656903228       4.931599311661067      15.579784652299999
    78   4     0.43625981216331067      133.48114956939253      13.808564961699998
    79   2     0.43625981216331067      133.48114956939253      11.293897032299999
    80   2     0.43625981216331067      133.48114956939253      15.579784652299999
    81   3     0.43652593496074321      112.05562391083842           11.8416575997
    82   3     0.43652593496074321      112.05562391083842           16.1275452197
    83   4     0.43679205775757157      90.630098252283389      13.808564961699998
    84   2     0.43679205775757157      90.630098252283389      11.293897032299999
    85   2     0.43679205775757157      90.630098252283389      15.579784652299999
    86   3     0.47832928575830408      69.151171460944141           11.8416575997
    87   3     0.47832928575830408      69.151171460944141           16.1275452197
    88   3     0.47939377694654828      154.84967040156681           11.8416575997
    89   3     0.47939377694654828      154.84967040156681           16.1275452197
    90   2     0.48772528923399788       1.323825784861846      5.0635815537999997
    91   2     0.48772528923399566      58.457359643142219      5.0635815537999997
    92   2     0.48772528923399749      115.59089350142258      5.0635815537999997
    93   1     0.48772528946475813      144.15766043006425      3.0874183849999999
    94   1     0.48772528946475813      144.15766043006425      7.1900737958000001
    95   1     0.48772528946478527      29.890592713502318      3.0874183849999999
    96   1     0.48772528946478527      29.890592713502318      7.1900737958000001
    97   1     0.48772528946478588      87.024126571782702      3.0874183849999999
    98   1     0.48772528946478588      87.024126571782702      7.1900737958000001
    99   2     0.61057225563201067      67.276368778133289           13.4298776893
   100   2     0.61083837842883992      45.850843119579167           13.4298776893
   101   2     0.61110450122567472      24.425317461024424           13.4298776893
   102   2     0.61163674681934055      152.97486771875651           13.4298776893
   103   2     0.61190286961617202      131.54934206020178           13.4298776893
   104   2     0.61216899241421197      110.12381640164735           13.4298776893
   105   4       0.627075371315714      5.7830284272290671      5.2105475048000001
   106   2       0.627075371315714      5.7830284272290671               2.9496935
   107   2       0.627075371315714      5.7830284272290671      7.0523489108000001
   108   4     0.62707537131571467      62.916562285508981      5.2105475048000001
   109   2     0.62707537131571467      62.916562285508981               2.9496935
   110   2     0.62707537131571467      62.916562285508981      7.0523489108000001
   111   4     0.62707537131571811       120.0500961437895      5.2105475048000001
   112   2     0.62707537131571811       120.0500961437895               2.9496935
   113   2     0.62707537131571811       120.0500961437895      7.0523489108000001
   114   2     0.62707537154650084      34.349795355869375      5.0635815537999997
   115   2     0.62707537154650062      91.483329214149748      5.0635815537999997
   116   2     0.62707537154650239      148.61686307243014      5.0635815537999997
   117   2     0.64265108850366504      2.9550727680973727           13.4298776893
   118   2     0.64371557969190352      88.653571708720051           13.4298776893
   119   2     0.76642545439639276      10.242231070057253      5.0635815537999997
   120   2     0.76642545439639342      67.375764928337475      5.0635815537999997
   121   2      0.7664254543967024      124.50929878661722      5.0635815537999997
   122   1      0.7664254546268876      153.07606571525832      3.0874183849999999
   123   1      0.7664254546268876      153.07606571525832      7.1900737958000001
   124   1      0.7664254546271787      38.808997998697194      3.0874183849999999
   125   1      0.7664254546271787      38.808997998697194      7.1900737958000001
   126   1      0.7664254546271847      95.942531856977638      3.0874183849999999
   127   1      0.7664254546271847      95.942531856977638      7.1900737958000001
   128   3     0.78621531308487691      65.344561268943124           11.8416575997
   129   3     0.78621531308487691      65.344561268943124           16.1275452197
   130   4     0.78648143588231567      43.919035610388079      13.808564961699998
   131   2     0.78648143588231567      43.919035610388079      11.293897032299999
   132   2     0.78648143588231567      43.919035610388079      15.579784652299999
   133   4     0.78701368147598072      1.0679842932786034      13.808564961699998
   134   2     0.78701368147598072      1.0679842932786034      11.293897032299999
   135   2     0.78701368147598072      1.0679842932786034      15.579784652299999
   136   3      0.7872798042734126      151.04306020956545           11.8416575997
   137   3      0.7872798042734126      151.04306020956545           16.1275452197
   138   4     0.78754592706964777      129.61753455101069      13.808564961699998
   139   2     0.78754592706964777      129.61753455101069      11.293897032299999
   140   2     0.78754592706964777      129.61753455101069      15.579784652299999
   141   4     0.78807817266453273      86.766483233901525      13.808564961699998
   142   2     0.78807817266453273      86.766483233901525      11.293897032299999
   143   2     0.78807817266453273      86.766483233901525      15.579784652299999
   144   3     0.81270556722093223      108.15810093887202           11.8416575997
   145   3     0.81270556722093223      108.15810093887202           16.1275452197
   146   3     0.81377005840856376      22.455998304652987           11.8416575997
   147   3     0.81377005840856376      22.455998304652987           16.1275452197
   148   4     0.90577553647841302      14.701433712423444      5.2105475048000001
   149   2     0.90577553647841302      14.701433712423444               2.9496935
   150   2     0.90577553647841302      14.701433712423444      7.0523489108000001
   151   4     0.90577553647841225      71.834967570704009      5.2105475048000001
   152   2     0.90577553647841225      71.834967570704009               2.9496935
   153   2     0.90577553647841225      71.834967570704009      7.0523489108000001
   154   4     0.90577553647840936      128.96850142898415      5.2105475048000001
   155   2     0.90577553647840936      128.96850142898415               2.9496935
   156   2     0.90577553647840936      128.96850142898415      7.0523489108000001
   157   2     0.90577553670858924      43.268200641064794      5.0635815537999997
   158   2     0.90577553670859812      100.40173449934471      5.0635815537999997
   159   2     0.90577553670858757      157.53526835762526      5.0635815537999997
   160   2     0.96185837053835022      63.412753759751737           13.4298776893
   161   2     0.96239061613323296      20.561702442641959           13.4298776893
   162   2     0.96265673892885328      170.53677835892938           13.4298776893
   163   2     0.96292286172690256      149.11125270037434           13.4298776893
   164   2     0.96345510732116812      106.26020138326486           13.4298776893
   165   2     0.96372123011800848      84.834675724710436           13.4298776893
   166   2     0.98169555474994941      127.66263016902354           13.4298776893
   167   2     0.98276004593788946      41.960527534804754           13.4298776893
   168   2      1.0451256195587881      19.160636355251551      5.0635815537999997
   169   2      1.0451256195587857      76.294170213531956      5.0635815537999997
   170   2      1.0451256195587881      133.42770407181231      5.0635815537999997
   171   1      1.0451256197892722      47.727403283892528      3.0874183849999999
   172   1      1.0451256197892722      47.727403283892528      7.1900737958000001
   173   1      1.0451256197892711       104.8609371421729      3.0874183849999999
   174   1      1.0451256197892711       104.8609371421729      7.1900737958000001
   175   1      1.0451256197892753      161.99447100045356      3.0874183849999999
   176   1      1.0451256197892753      161.99447100045356      7.1900737958000001
   177   4      1.1377675507886558      40.055420592005916      13.808564961699998
   178   2      1.1377675507886558      40.055420592005916      11.293897032299999
   179   2      1.1377675507886558      40.055420592005916      15.579784652299999
   180   3      1.1380336735860974      18.629894933451791           11.8416575997
   181   3      1.1380336735860974      18.629894933451791           16.1275452197
   182   4      1.1382997963829347       168.6049708497377      13.808564961699998
   183   2      1.1382997963829347       168.6049708497377      11.293897032299999
   184   2      1.1382997963829347       168.6049708497377      15.579784652299999
   185   4      1.1388320419765947      125.75391953262883      13.808564961699998
   186   2      1.1388320419765947      125.75391953262883      11.293897032299999
   187   2      1.1388320419765947      125.75391953262883      15.579784652299999
   188   3      1.1390981647740273      104.32839387407472           11.8416575997
   189   3      1.1390981647740273      104.32839387407472           16.1275452197
   190   3      1.1506855422792794      147.16715939917532           11.8416575997
   191   3      1.1506855422792794      147.16715939917532           16.1275452197
   192   4      1.1821101039952304      82.855199758706533      13.808564961699998
   193   2      1.1821101039952304      82.855199758706533      11.293897032299999
   194   2      1.1821101039952304      82.855199758706533      15.579784652299999
   195   3       1.182376226792365      61.429674100151836           11.8416575997
   196   3       1.182376226792365      61.429674100151836           16.1275452197
   197   4      1.1844757016405021      23.619838997618508      5.2105475048000001
   198   2      1.1844757016405021      23.619838997618508               2.9496935
   199   2      1.1844757016405021      23.619838997618508      7.0523489108000001
   200   4      1.1844757016405016      80.753372855899173      5.2105475048000001
   201   2      1.1844757016405016      80.753372855899173               2.9496935
   202   2      1.1844757016405016      80.753372855899173      7.0523489108000001
   203   4      1.1844757016405048       137.8869067141797      5.2105475048000001
   204   2      1.1844757016405048       137.8869067141797               2.9496935
   205   2      1.1844757016405048       137.8869067141797      7.0523489108000001
   206   2      1.1844757018712897       52.18660592625929      5.0635815537999997
   207   2      1.1844757018712848      109.32013978453966      5.0635815537999997
   208   2      1.1844757018712944      166.45367364282001      5.0635815537999997
   209   2      1.3131444854459084      59.549138741369575           13.4298776893
   210   2      1.3134106082427395      38.123613082814842           13.4298776893
   211   2      1.3136767310389625      16.698087424260713           13.4298776893
   212   2      1.3142089766332443      145.24763768199219           13.4298776893
   213   2       1.314475099430068      123.82211202343746           13.4298776893
   214   2      1.3147412222281145      102.39658636488304           13.4298776893
   215   2      1.3150073450249418      80.971060706328601           13.4298776893
   216   2      1.3160718362122776       166.6695596469512           13.4298776893
   217   2      1.3238257847211823       28.07904164044654      5.0635815537999997
   218   2      1.3238257847211774      85.212575498726906      5.0635815537999997
   219   2      1.3238257847211823      142.34610935700758      5.0635815537999997
   220   1       1.323825784951663      56.645808569087322      3.0874183849999999
   221   1       1.323825784951663      56.645808569087322      7.1900737958000001
   222   1      1.3238257849516699      113.77934242736785      3.0874183849999999
   223   1      1.3238257849516699      113.77934242736785      7.1900737958000001
   224   1      1.3238257849516706      170.91287628564805      3.0874183849999999
   225   1      1.3238257849516706      170.91287628564805      7.1900737958000001
   226   4       1.463175866802586      89.671778141094293      5.2105475048000001
   227   2       1.463175866802586      89.671778141094293               2.9496935
   228   2       1.463175866802586      89.671778141094293      7.0523489108000001
   229   4      1.4631758668025987      146.80531199937511      5.2105475048000001
   230   2      1.4631758668025987      146.80531199937511               2.9496935
   231   2      1.4631758668025987      146.80531199937511      7.0523489108000001
   232   4      1.4631758668032007      32.538244282813416      5.2105475048000001
   233   2      1.4631758668032007      32.538244282813416               2.9496935
   234   2      1.4631758668032007      32.538244282813416      7.0523489108000001
   235   2      1.4631758670333803      3.9714773531739453      5.0635815537999997
   236   2      1.4631758670333768       61.10501121145424      5.0635815537999997
   237   2      1.4631758670333848      118.23854506973491      5.0635815537999997
   238   3      1.4887875428993838        57.6173312321785           11.8416575997
   239   3      1.4887875428993838        57.6173312321785           16.1275452197
   240   4      1.4890536656962163      36.191805573623455      13.808564961699998
   241   2      1.4890536656962163      36.191805573623455      11.293897032299999
   242   2      1.4890536656962163      36.191805573623455      15.579784652299999
   243   3      1.4893197884930447      14.766279915069633           11.8416575997
   244   3      1.4893197884930447      14.766279915069633           16.1275452197
   245   4      1.4895859112892718      164.74135583135583      13.808564961699998
   246   2      1.4895859112892718      164.74135583135583      11.293897032299999
   247   2      1.4895859112892718      164.74135583135583      15.579784652299999
   248   3      1.4898520340873207      143.31583017280172           11.8416575997
   249   3      1.4898520340873207      143.31583017280172           16.1275452197
   250   4      1.4901181568835373      121.89030451424637      13.808564961699998
   251   2      1.4901181568835373      121.89030451424637      11.293897032299999
   252   2      1.4901181568835373      121.89030451424637      15.579784652299999
   253   3      1.4903842796815998      100.46477885569226           11.8416575997
   254   3      1.4903842796815998      100.46477885569226           16.1275452197
   255   4      1.4906504024784224      79.039253197137199      13.808564961699998
   256   2      1.4906504024784224      79.039253197137199      11.293897032299999
   257   2      1.4906504024784224      79.039253197137199      15.579784652299999
   258   2      1.6025259498832727      94.130980783922467      5.0635815537999997
   259   2      1.6025259498835771      36.997446925641647      5.0635815537999997
   260   2      1.6025259498835729      151.26451464220241      5.0635815537999997
   261   1      1.6025259501140581      8.4306799960022065      3.0874183849999999
   262   1      1.6025259501140581      8.4306799960022065      7.1900737958000001
   263   1      1.6025259501140598      65.564213854282414      3.0874183849999999
   264   1      1.6025259501140598      65.564213854282414      7.1900737958000001
   265   1       1.602525950114063      122.69774771256294      3.0874183849999999
   266   1       1.602525950114063      122.69774771256294      7.1900737958000001
   267   2      1.6641644775554161       77.11104938154277           13.4298776893
   268   2      1.6644306003522498      55.685523722987419           13.4298776893
   269   2       1.664696723149079      34.259998064433297           13.4298776893
   270   2      1.6649628459465198      12.834472405878248           13.4298776893
   271   2      1.6652289687433464      162.80954832216506           13.4298776893
   272   2      1.6654950915407891      141.38402266360973           13.4298776893
   273   2      1.6657612143370133       119.9584970050562           13.4298776893
   274   2      1.6660273371350691      98.532971346501157           13.4298776893
   275   4      1.7418760319652948      41.456649568008864      5.2105475048000001
   276   2      1.7418760319652948      41.456649568008864               2.9496935
   277   2      1.7418760319652948      41.456649568008864      7.0523489108000001
   278   4      1.7418760319652833      98.590183426288775      5.2105475048000001
   279   2      1.7418760319652833      98.590183426288775               2.9496935
   280   2      1.7418760319652833      98.590183426288775      7.0523489108000001
   281   4      1.7418760319652875      155.72371728456946      5.2105475048000001
   282   2      1.7418760319652875      155.72371728456946               2.9496935
   283   2      1.7418760319652875      155.72371728456946      7.0523489108000001
   284   2      1.7418760321954709      70.023416496649645      5.0635815537999997
   285   2      1.7418760321957747       12.88988263836897      5.0635815537999997
   286   2      1.7418760321957725      127.15695035493017      5.0635815537999997
   287   4      1.8398075350088956      75.179241872351682      13.808564961699998
   288   2      1.8398075350088956      75.179241872351682      11.293897032299999
   289   2      1.8398075350088956      75.179241872351682      15.579784652299999
   290   3       1.840073657806331      53.753716213796643           11.8416575997
   291   3       1.840073657806331      53.753716213796643           16.1275452197
   292   4      1.8403397806025519      32.328190555241605      13.808564961699998
   293   2      1.8403397806025519      32.328190555241605      11.293897032299999
   294   2      1.8403397806025519      32.328190555241605      15.579784652299999
   295   3      1.8406059033999937       10.90266489668717           11.8416575997
   296   3      1.8406059033999937       10.90266489668717           16.1275452197
   297   4      1.8408720261968214      160.87774081297403      13.808564961699998
   298   2      1.8408720261968214      160.87774081297403      11.293897032299999
   299   2      1.8408720261968214      160.87774081297403      15.579784652299999
   300   3      1.8411381489936554      139.45221515441958           11.8416575997
   301   3      1.8411381489936554      139.45221515441958           16.1275452197
   302   4       1.841404271790489      118.02668949586422      13.808564961699998
   303   2       1.841404271790489      118.02668949586422      11.293897032299999
   304   2       1.841404271790489      118.02668949586422      15.579784652299999
   305   3      1.8416703945879351      96.601163837310082           11.8416575997
   306   3      1.8416703945879351      96.601163837310082           16.1275452197
   307   2      1.8812261150456662      45.915852210837052      5.0635815537999997
   308   2      1.8812261150456664      103.04938606911756      5.0635815537999997
   309   2      1.8812261150456782      160.18291992739751      5.0635815537999997
   310   1      1.8812261152764533        17.3490852811967      3.0874183849999999
   311   1      1.8812261152764533        17.3490852811967      7.1900737958000001
   312   1       1.881226115276454      74.482619139477222      3.0874183849999999
   313   1       1.881226115276454      74.482619139477222      7.1900737958000001
   314   1      1.8812261152764529      131.61615299775758      3.0874183849999999
   315   1      1.8812261152764529      131.61615299775758      7.1900737958000001
   316   2      2.0154505924623622      73.247434363160295           13.4298776893
   317   2      2.0157167152598019      51.821908704604958           13.4298776893
   318   2      2.0159828380566363      30.396383046051437           13.4298776893
   319   2       2.016515083650305      158.94593330378288           13.4298776893
   320   2      2.0167812064477411      137.52040764522849           13.4298776893
   321   2      2.0170473292439626      116.09488198667374           13.4298776893
   322   2      2.0173134520420137      94.669356328119008           13.4298776893
   323   4      2.0205761971276868      50.375054853203359      5.2105475048000001
   324   2      2.0205761971276868      50.375054853203359               2.9496935
   325   2      2.0205761971276868      50.375054853203359      7.0523489108000001
   326   4      2.0205761971276819      107.50858871148391      5.2105475048000001
   327   2      2.0205761971276819      107.50858871148391               2.9496935
   328   2      2.0205761971276819      107.50858871148391      7.0523489108000001
   329   4      2.0205761971278493      164.64212256976501      5.2105475048000001
   330   2      2.0205761971278493      164.64212256976501               2.9496935
   331   2      2.0205761971278493      164.64212256976501      7.0523489108000001
   332   2      2.0205761973581713       21.80828792356392      5.0635815537999997
   333   2      2.0205761973581722      78.941821781844297      5.0635815537999997
   334   2      2.0205761973581677      136.07535564012466      5.0635815537999997
   335   2      2.0930584952896578      8.8655298331472476           13.4298776893
   336   2       2.159926280208063      54.834257496031697      5.0635815537999997
   337   2      2.1599262802080568      111.96779135431237      5.0635815537999997
   338   2      2.1599262802080581       169.1013252125926      5.0635815537999997
   339   1      2.1599262804385426      26.267490566392258      3.0874183849999999
   340   1      2.1599262804385426      26.267490566392258      7.1900737958000001
   341   1      2.1599262804385382      83.401024424672627      3.0874183849999999
   342   1      2.1599262804385382      83.401024424672627      7.1900737958000001
   343   1      2.1599262804388473      140.53455828295284      3.0874183849999999
   344   1      2.1599262804388473      140.53455828295284      7.1900737958000001
   345   4      2.1910936499164446      71.315626853969221      13.808564961699998
   346   2      2.1910936499164446      71.315626853969221      11.293897032299999
   347   2      2.1910936499164446      71.315626853969221      15.579784652299999
   348   3      2.1913597727126684      49.890101195414793           11.8416575997
   349   3      2.1913597727126684      49.890101195414793           16.1275452197
   350   3      2.1918920183069419      7.0390498783059252           11.8416575997
   351   3      2.1918920183069419      7.0390498783059252           16.1275452197
   352   4       2.192158141103163      157.01412579459185      13.808564961699998
   353   2       2.192158141103163      157.01412579459185      11.293897032299999
   354   2       2.192158141103163      157.01412579459185      15.579784652299999
   355   3      2.1924242639006071       135.5886001360374           11.8416575997
   356   3      2.1924242639006071       135.5886001360374           16.1275452197
   357   3      2.1929565094954895      92.737548818927934           11.8416575997