(written by ASE)

9695 atoms
4 atom types

0.0      103.51938631057115  xlo xhi
0.0      103.51938631057115  ylo yhi
0.0      63.177851719700001  zlo zhi

Masses

     1       137.3269999646734 # Ba
     2      15.998999995884349 # O
     3      207.19999994669897 # Pb
     4      47.866999987686484 # Ti

Atoms # atomic

     1   4  1.2633943863519982e-05      90.625128881718581      13.808564961699998
     2   2  1.2633943863519982e-05      90.625128881718581      11.293897032299999
     3   2  1.2633943863519982e-05      90.625128881718581      15.579784652299999
     4   3  1.7389722511238706e-05      12.897519007924849           11.8416575997
     5   3  1.7389722511238706e-05      12.897519007924849           16.1275452197
     6   4  0.00074271349203821994      38.767573342434652      13.808564961699998
     7   2  0.00074271349203821994      38.767573342434652      11.293897032299999
     8   2  0.00074271349203821994      38.767573342434652      15.579784652299999
     9   3   0.0015581082599714841      64.647412414160755           11.8416575997
    10   3   0.0015581082599714841      64.647412414160755           16.1275452197
    11   2    0.038454452174384209       23.64948832880134      5.0635815537999997
    12   1    0.038454452428887322      75.409181483599255      3.0874183849999999
    13   1    0.038454452428887322      75.409181483599255      7.1900737958000001
    14   2    0.084412257498746951      20.972942262901821           13.4298776893
    15   2    0.085197628600668845      46.849519755555278           13.4298776893
    16   2    0.085982999702223228       72.72609724820984           13.4298776893
    17   2    0.086768370804230555      98.602674740863293           13.4298776893
    18   4     0.11536335779602372      19.188771831274746      5.2105475048000001
    19   2     0.11536335779602372      19.188771831274746               2.9496935
    20   2     0.11536335779602372      19.188771831274746      7.0523489108000001
    21   2     0.11536335805052342      70.948464986072651      5.0635815537999997
    22   2     0.19227226244269266      14.728055333239519      5.0635815537999997
    23   1     0.19227226269719319      66.487748488037425      3.0874183849999999
    24   1     0.19227226269719319      66.487748488037425      7.1900737958000001
    25   3     0.23005655965610439       28.96951717048681           11.8416575997
    26   3     0.23005655965610439       28.96951717048681           16.1275452197
    27   4     0.23084193075784262      54.846094663140633      13.808564961699998
    28   2     0.23084193075784262      54.846094663140633      11.293897032299999
    29   2     0.23084193075784262      54.846094663140633      15.579784652299999
    30   3      0.2316273018593886      80.722672155794825           11.8416575997
    31   3      0.2316273018593886      80.722672155794825           16.1275452197
    32   4     0.23241267296131543      3.0798633378774927      13.808564961699998
    33   2     0.23241267296131543      3.0798633378774927      11.293897032299999
    34   2     0.23241267296131543      3.0798633378774927      15.579784652299999
    35   4     0.26918116806433112      10.267338835712787      5.2105475048000001
    36   2     0.26918116806433112      10.267338835712787               2.9496935
    37   2     0.26918116806433112      10.267338835712787      7.0523489108000001
    38   2     0.26918116831882616      62.027031990510956      5.0635815537999997
    39   2     0.34609007271099917       5.806622337677422      5.0635815537999997
    40   1     0.34609007296549771      57.566315492475567      3.0874183849999999
    41   1     0.34609007296549771      57.566315492475567      7.1900737958000001
    42   2     0.37570086181327494      36.966092078071796           13.4298776893
    43   2     0.37648623291500954      62.842669570725988           13.4298776893
    44   2      0.3772415803501829      88.715985484308092           13.4298776893
    45   2     0.37802695145219917      11.073176666390388           13.4298776893
    46   4     0.42299897833263894      1.3459058401511947      5.2105475048000001
    47   2     0.42299897833263894      1.3459058401511947               2.9496935
    48   2     0.42299897833263894      1.3459058401511947      7.0523489108000001
    49   2     0.42299897858713514      53.105598994949013      5.0635815537999997
    50   2     0.49990788297929628      100.40457565268694      5.0635815537999997
    51   1     0.49990788323380198      48.644882496913695      3.0874183849999999
    52   1     0.49990788323380198      48.644882496913695      7.1900737958000001
    53   3     0.52288588250752677      96.712560391893092           11.8416575997
    54   3     0.52288588250752677      96.712560391893092           16.1275452197
    55   4      0.5768167886011345      95.943859155160339      5.2105475048000001
    56   2      0.5768167886011345      95.943859155160339               2.9496935
    57   2      0.5768167886011345      95.943859155160339      7.0523489108000001
    58   2     0.57681678885544352      44.184165999387162      5.0635815537999997
    59   4     0.59156394079954755      19.003889495540772      13.808564961699998
    60   2     0.59156394079954755      19.003889495540772      11.293897032299999
    61   2     0.59156394079954755      19.003889495540772      15.579784652299999
    62   3     0.59231928823508773      44.877205409122546           11.8416575997
    63   3     0.59231928823508773      44.877205409122546           16.1275452197
    64   4     0.59313468300301675      70.757044480848833      13.808564961699998
    65   2     0.59313468300301675      70.757044480848833      11.293897032299999
    66   2     0.59313468300301675      70.757044480848833      15.579784652299999
    67   2     0.65372569324760699      91.483142657125171      5.0635815537999997
    68   1     0.65372569350211496      39.723449501351872      3.0874183849999999
    69   1     0.65372569350211496      39.723449501351872      7.1900737958000001
    70   2      0.6661740713593165      27.079402821516595           13.4298776893
    71   2     0.66695944246105665      52.955980314170048           13.4298776893
    72   2     0.66774481356297988      78.832557806824241           13.4298776893
    73   2     0.67164164540532789      1.1734110698800595           13.4298776893
    74   4     0.73063459886924886      87.022426159598538      5.2105475048000001
    75   2     0.73063459886924886      87.022426159598538               2.9496935
    76   2     0.73063459886924886      87.022426159598538      7.0523489108000001
    77   2     0.73063459912375373      35.262733003825254      5.0635815537999997
    78   2     0.80754350351591353      82.561709661563256      5.0635815537999997
    79   1     0.80754350377042294      30.802016505789958      3.0874183849999999
    80   1     0.80754350377042294      30.802016505789958      7.1900737958000001
    81   4     0.81181837351630726      35.075977729101588      13.808564961699998
    82   2     0.81181837351630726      35.075977729101588      11.293897032299999
    83   2     0.81181837351630726      35.075977729101588      15.579784652299999
    84   4     0.81338911571977468      86.829132714409965      13.808564961699998
    85   2     0.81338911571977468      86.829132714409965      11.293897032299999
    86   2     0.81338911571977468      86.829132714409965      15.579784652299999
    87   3     0.81414446315532329       9.183062317420541           11.8416575997
    88   3     0.81414446315532329       9.183062317420541           16.1275452197
    89   3     0.81885668976608295      60.923140962773068           11.8416575997
    90   3     0.81885668976608295      60.923140962773068           16.1275452197
    91   4     0.88445240913774348      78.100993164036609      5.2105475048000001
    92   2     0.88445240913774348      78.100993164036609               2.9496935
    93   2     0.88445240913774348      78.100993164036609      7.0523489108000001
    94   2     0.88445240939205905      26.341300008263367      5.0635815537999997
    95   2     0.95743265200728023      43.069291057614485           13.4298776893
    96   2     0.95821802310883297      68.945868550268671           13.4298776893
    97   2     0.95900339421074787      94.822446042922508           13.4298776893
    98   2     0.96136131378422429      73.640276666001483      5.0635815537999997
    99   1     0.96136131403872982      21.880583510228114      3.0874183849999999
   100   1     0.96136131403872982      21.880583510228114      7.1900737958000001
   101   2     0.96604171046042153      17.150222966023371           13.4298776893
   102   4      1.0382702194058648      69.179560168474708      5.2105475048000001
   103   2      1.0382702194058648      69.179560168474708               2.9496935
   104   2      1.0382702194058648      69.179560168474708      7.0523489108000001
   105   2      1.0382702196603684      17.419867012701545      5.0635815537999997
   106   4      1.1030769541642704       51.06586596520021      13.808564961699998
   107   2      1.1030769541642704       51.06586596520021      11.293897032299999
   108   2      1.1030769541642704       51.06586596520021      15.579784652299999
   109   4      1.1046476963678307      102.81902095050785      13.808564961699998
   110   2      1.1046476963678307      102.81902095050785      11.293897032299999
   111   2      1.1046476963678307      102.81902095050785      15.579784652299999
   112   3      1.1132567548212009      76.899952858916365           11.8416575997
   113   3      1.1132567548212009      76.899952858916365           16.1275452197
   114   2      1.1151791240525346      64.718843670439469      5.0635815537999997
   115   1       1.115179124307035       12.95915051466627      3.0874183849999999
   116   1       1.115179124307035       12.95915051466627      7.1900737958000001
   117   3      1.1830804682103919      25.106998404084546           11.8416575997
   118   3      1.1830804682103919      25.106998404084546           16.1275452197
   119   4      1.1920880296741725      60.258127172913042      5.2105475048000001
   120   2      1.1920880296741725      60.258127172913042               2.9496935
   121   2      1.1920880296741725      60.258127172913042      7.0523489108000001
   122   2      1.1920880299286756      8.4984340171397221      5.0635815537999997
   123   2      1.2487212563216263      59.062440872784833           13.4298776893
   124   2      1.2495066274231792      84.939018365439026           13.4298776893
   125   2      1.2502919985250995      7.2962095475216868           13.4298776893
   126   2      1.2635832599226007      33.113958522211746           13.4298776893
   127   2      1.2689969343208405      55.797410674877653      5.0635815537999997
   128   1      1.2689969345753436      4.0377175191044028      3.0874183849999999
   129   1      1.2689969345753436      4.0377175191044028      7.1900737958000001
   130   4      1.3459058399426618      51.336694177351063      5.2105475048000001
   131   2      1.3459058399426618      51.336694177351063               2.9496935
   132   2      1.3459058399426618      51.336694177351063      7.0523489108000001
   133   2      1.3459058401969741      103.09638733214906      5.0635815537999997
   134   3      1.3935501637104957       41.17917670864427           11.8416575997
   135   3      1.3935501637104957       41.17917670864427           16.1275452197
   136   4      1.3943355348124171      67.055754201298086      13.808564961699998
   137   2      1.3943355348124171      67.055754201298086      11.293897032299999
   138   2      1.3943355348124171      67.055754201298086      15.579784652299999
   139   4      1.3959062770156165      15.289522876035317      13.808564961699998
   140   2      1.3959062770156165      15.289522876035317      11.293897032299999
   141   2      1.3959062770156165      15.289522876035317      15.579784652299999
   142   3      1.4107983042830607      92.863688415105116           11.8416575997
   143   3      1.4107983042830607      92.863688415105116           16.1275452197
   144   2      1.4228147445891499      46.875977679315831      5.0635815537999997
   145   1      1.4228147448436377      98.635670834113753      3.0874183849999999
   146   1      1.4228147448436377      98.635670834113753      7.1900737958000001
   147   4      1.4997236502107893      42.415261181789234      5.2105475048000001
   148   2      1.4997236502107893      42.415261181789234               2.9496935
   149   2      1.4997236502107893      42.415261181789234      7.0523489108000001
   150   2      1.4997236504652875      94.174954336587149      5.0635815537999997
   151   2      1.5384090947663003      23.299174123575064           13.4298776893
   152   2      1.5399798369694029      75.052329108883455           13.4298776893
   153   2      1.5407652080713174      100.92890660153728           13.4298776893
   154   2      1.5579833249778821      49.090770418355234           13.4298776893
   155   2      1.5766325548574558      37.954544683754008      5.0635815537999997
   156   1      1.5766325551119538      89.714237838551924      3.0874183849999999
   157   1      1.5766325551119538      89.714237838551924      7.1900737958000001
   158   4      1.6535414604792773      33.493828186227319      5.2105475048000001
   159   2      1.6535414604792773      33.493828186227319               2.9496935
   160   2      1.6535414604792773      33.493828186227319      7.0523489108000001
   161   2      1.6535414607335968      85.253521341025319      5.0635815537999997
   162   4       1.684053396923102      31.295749031160788      13.808564961699998
   163   2       1.684053396923102      31.295749031160788      11.293897032299999
   164   2       1.684053396923102      31.295749031160788      15.579784652299999
   165   3       1.684838768025207      57.172326523814242           11.8416575997
   166   3       1.684838768025207      57.172326523814242           16.1275452197
   167   4      1.6856241391267635      83.048904016468427      13.808564961699998
   168   2      1.6856241391267635      83.048904016468427      11.293897032299999
   169   2      1.6856241391267635      83.048904016468427      15.579784652299999
   170   3      1.7051983693387096      5.3211140006770865           11.8416575997
   171   3      1.7051983693387096      5.3211140006770865           16.1275452197
   172   2      1.7304503651257626      29.033111688192164      5.0635815537999997
   173   1       1.730450365380261      80.792804842990037      3.0874183849999999
   174   1       1.730450365380261      80.792804842990037      7.1900737958000001
   175   4      1.8073592707474051        24.5723951906655      5.2105475048000001
   176   2      1.8073592707474051        24.5723951906655               2.9496935
   177   2      1.8073592707474051        24.5723951906655      7.0523489108000001
   178   2      1.8073592710018993      76.332088345463504      5.0635815537999997
   179   2      1.8296976990802778      39.292323938745781           13.4298776893
   180   2      1.8304530465156295      65.165639852327885           13.4298776893
   181   2      1.8312384176175511      91.042217344981708           13.4298776893
   182   2      1.8320237887191992      13.399408527064736           13.4298776893
   183   2      1.8842681753940702      20.111678692630182      5.0635815537999997
   184   1       1.884268175648566      71.871371847428179      3.0874183849999999
   185   1       1.884268175648566      71.871371847428179      7.1900737958000001
   186   4      1.9611770810157099      15.650962195103725      5.2105475048000001
   187   2      1.9611770810157099      15.650962195103725               2.9496935
   188   2      1.9611770810157099      15.650962195103725      7.0523489108000001
   189   2      1.9611770812702092      67.410655349901589      5.0635815537999997
   190   3      1.9745266064695157      21.409059774604849           11.8416575997
   191   3      1.9745266064695157      21.409059774604849           16.1275452197
   192   4      1.9753119775710652      47.285637267259041      13.808564961699998
   193   2      1.9753119775710652      47.285637267259041      11.293897032299999
   194   2      1.9753119775710652      47.285637267259041      15.579784652299999
   195   3      1.9760973486729834      73.162214759912871           11.8416575997
   196   3      1.9760973486729834      73.162214759912871           16.1275452197
   197   4      1.9768827197746344      99.038792252567063      13.808564961699998
   198   2      1.9768827197746344      99.038792252567063      11.293897032299999
   199   2      1.9768827197746344      99.038792252567063      15.579784652299999
   200   2       2.038085985662379      11.190245697068359      5.0635815537999997
   201   1      2.0380859859168794      62.949938851866271      3.0874183849999999
   202   1      2.0380859859168794      62.949938851866271      7.1900737958000001
   203   4      2.1149948912842023      6.7295291995418109      5.2105475048000001
   204   2      2.1149948912842023      6.7295291995418109               2.9496935
   205   2      2.1149948912842023      6.7295291995418109      7.0523489108000001
   206   2      2.1149948915385184      58.489222354339766      5.0635815537999997
   207   2      2.1201709086265015      29.405634682189842           13.4298776893
   208   2      2.1209562797280528      55.282212174844034           13.4298776893
   209   2      2.1217416508297937      81.158789667498212           13.4298776893
   210   2       2.122527021931897      3.5159808495808909           13.4298776893
   211   2      2.1919037959306871      2.2688127015065387      5.0635815537999997
   212   1      2.1919037961851848      54.028505856304541      3.0874183849999999
   213   1      2.1919037961851848      54.028505856304541      7.1900737958000001
   214   3      2.2658152107834848      37.402209589775197           11.8416575997
   215   3      2.2658152107834848      37.402209589775197           16.1275452197
   216   4      2.2666005818854082      63.278787082429396      13.808564961699998
   217   2      2.2666005818854082      63.278787082429396      11.293897032299999
   218   2      2.2666005818854082      63.278787082429396      15.579784652299999
   219   3      2.2673559293206678      89.152102996011124           11.8416575997
   220   3      2.2673559293206678      89.152102996011124           16.1275452197
   221   4       2.268141300422414      11.509294178094153      13.808564961699998
   222   2       2.268141300422414      11.509294178094153      11.293897032299999
   223   2       2.268141300422414      11.509294178094153      15.579784652299999
   224   4      2.2688127015523225      101.32748251455111      5.2105475048000001
   225   2      2.2688127015523225      101.32748251455111               2.9496935
   226   2      2.2688127015523225      101.32748251455111      7.0523489108000001
   227   2      2.2688127018068238      49.567789358778036      5.0635815537999997
   228   2      2.3457216061989881      96.866766016515854      5.0635815537999997
   229   1      2.3457216064534876      45.107072860742633      3.0874183849999999
   230   1      2.3457216064534876      45.107072860742633      7.1900737958000001
   231   2      2.4106441181727316      19.518945425634268           13.4298776893
   232   2      2.4114294892742829      45.395522918288457           13.4298776893
   233   2       2.412214860376388      71.272100410941917           13.4298776893
   234   2      2.4130002314781209      97.148677903596479           13.4298776893
   235   4      2.4226305118208065      92.406049518989278      5.2105475048000001
   236   2      2.4226305118208065      92.406049518989278               2.9496935
   237   2      2.4226305118208065      92.406049518989278      7.0523489108000001
   238   2      2.4226305120751319      40.646356363216071      5.0635815537999997
   239   2      2.4995394164672966       87.94533302095401      5.0635815537999997
   240   1      2.4995394167217975      36.185639865180711      3.0874183849999999
   241   1      2.4995394167217975      36.185639865180711      7.1900737958000001
   242   4      2.5562884203297171      27.515520333219627      13.808564961699998
   243   2      2.5562884203297171      27.515520333219627      11.293897032299999
   244   2      2.5562884203297171      27.515520333219627      15.579784652299999
   245   3       2.557073791431637      53.392097825873449           11.8416575997
   246   3       2.557073791431637      53.392097825873449           16.1275452197
   247   3      2.5586445336351114      1.6258665006103097           11.8416575997
   248   3      2.5586445336351114      1.6258665006103097           16.1275452197
   249   4      2.5610006469402355      79.255598978572891      13.808564961699998
   250   2      2.5610006469402355      79.255598978572891      11.293897032299999
   251   2      2.5610006469402355      79.255598978572891      15.579784652299999
   252   4      2.5764483220889383      83.484616523427363      5.2105475048000001
   253   2      2.5764483220889383      83.484616523427363               2.9496935
   254   2      2.5764483220889383      83.484616523427363      7.0523489108000001
   255   2      2.5764483223434365      31.724923367654213      5.0635815537999997
   256   2      2.6533572267356016      79.023900025392052      5.0635815537999997
   257   1      2.6533572269901073      27.264206869618857      3.0874183849999999
   258   1      2.6533572269901073      27.264206869618857      7.1900737958000001
   259   2      2.7027180935884387      61.388672733459181           13.4298776893
   260   2      2.7035034646905474      87.265250226112641           13.4298776893
   261   2      2.7042588121258122      9.6191798291235724           13.4298776893
   262   2      2.7081856676347011      35.482680981822639           13.4298776893
   263   4      2.7302661323572504      74.563183527865633      5.2105475048000001
   264   2      2.7302661323572504      74.563183527865633               2.9496935
   265   2      2.7302661323572504      74.563183527865633      7.0523489108000001
   266   2      2.7302661326117459      22.803490372092391      5.0635815537999997
   267   2      2.8071750370039177      70.102467029830223      5.0635815537999997
   268   1      2.8071750372584146      18.342773874057023      3.0874183849999999
   269   1      2.8071750372584146      18.342773874057023      7.1900737958000001
   270   3      2.8467616298759437      17.628831076664053           11.8416575997
   271   3      2.8467616298759437      17.628831076664053           16.1275452197
   272   4      2.8475470009778636      43.505408569317879      13.808564961699998
   273   2      2.8475470009778636      43.505408569317879      11.293897032299999
   274   2      2.8475470009778636      43.505408569317879      15.579784652299999
   275   3      2.8483323720794096      69.381986061972071           11.8416575997
   276   3      2.8483323720794096      69.381986061972071           16.1275452197
   277   4      2.8554007119954701       95.23241087471601      13.808564961699998
   278   2      2.8554007119954701       95.23241087471601      11.293897032299999
   279   2      2.8554007119954701       95.23241087471601      15.579784652299999
   280   4      2.8840839426255567      65.641750532303817      5.2105475048000001
   281   2      2.8840839426255567      65.641750532303817               2.9496935
   282   2      2.8840839426255567      65.641750532303817      7.0523489108000001
   283   2      2.8840839428800544      13.882057376530566      5.0635815537999997
   284   2      2.9609928472722196      61.181034034268592      5.0635815537999997
   285   1       2.960992847526724      9.4213408784951564      3.0874183849999999
   286   1       2.960992847526724      9.4213408784951564      7.1900737958000001
   287   2      2.9924059320332996      25.625405984249046           13.4298776893
   288   2      2.9939766742365834      77.378560969557427           13.4298776893
   289   2      2.9947620453385038      103.25513846221088           13.4298776893
   290   2       3.002585732689723      51.459492877966142           13.4298776893
   291   4      3.0379017528938612      56.720317536741852      5.2105475048000001
   292   2      3.0379017528938612      56.720317536741852               2.9496935
   293   2      3.0379017528938612      56.720317536741852      7.0523489108000001
   294   2      3.0379017531483616      4.9606243809687003      5.0635815537999997
   295   2      3.1148106575405268      52.259601038706492      5.0635815537999997
   296   1      3.1148106577950303     0.49990788293342703      3.0874183849999999
   297   1      3.1148106577950303     0.49990788293342703      7.1900737958000001
   298   3      3.1380502341904686      33.621980891834035           11.8416575997
   299   3      3.1380502341904686      33.621980891834035           16.1275452197
   300   4      3.1388356052920194      59.498558384488604      13.808564961699998
   301   2      3.1388356052920194      59.498558384488604      11.293897032299999
   302   2      3.1388356052920194      59.498558384488604      15.579784652299999
   303   3        3.13962097639395      85.375135877142057           11.8416575997
   304   3        3.13962097639395      85.375135877142057           16.1275452197
   305   4      3.1498007770504186      7.6898364602881681      13.808564961699998
   306   2      3.1498007770504186      7.6898364602881681      11.293897032299999
   307   2      3.1498007770504186      7.6898364602881681      15.579784652299999
   308   4      3.1917195631623549      47.798884541180009      5.2105475048000001
   309   2      3.1917195631623549      47.798884541180009               2.9496935
   310   2      3.1917195631623549      47.798884541180009      7.0523489108000001
   311   2      3.1917195634166635      99.558577695977903      5.0635815537999997
   312   2      3.2686284678088362       43.33816804314467      5.0635815537999997
   313   1        3.26862846806333      95.097861197942677      3.0874183849999999
   314   1        3.26862846806333      95.097861197942677      7.1900737958000001
   315   2      3.2836645126810793      41.615294220347664           13.4298776893
   316   2      3.2852352548847308      93.368449205655324           13.4298776893
   317   2       3.286020625986382      15.725640387738348           13.4298776893
   318   2       3.300127282151903      67.423228434154325           13.4298776893
   319   4      3.3455373734304752      38.877451545618172      5.2105475048000001
   320   2      3.3455373734304752      38.877451545618172               2.9496935
   321   2      3.3455373734304752      38.877451545618172      7.0523489108000001
   322   2      3.3455373736849801      90.637144700416073      5.0635815537999997
   323   2      3.4224462780771407      34.416735047582755      5.0635815537999997
   324   1      3.4224462783316389      86.176428202380848      3.0874183849999999
   325   1      3.4224462783316389      86.176428202380848      7.1900737958000001
   326   3      3.4293088148384334      49.611869127932657           11.8416575997
   327   3      3.4293088148384334      49.611869127932657           16.1275452197
   328   4      3.4300941859399861      75.488446620586842      13.808564961699998
   329   2      3.4300941859399861      75.488446620586842      11.293897032299999
   330   2      3.4300941859399861      75.488446620586842      15.579784652299999
   331   3      3.4308795570418154       101.3650241132403           11.8416575997
   332   3      3.4308795570418154       101.3650241132403           16.1275452197
   333   4      3.4473123028465418      23.650310437404261      13.808564961699998
   334   2      3.4473123028465418      23.650310437404261      11.293897032299999
   335   2      3.4473123028465418      23.650310437404261      15.579784652299999
   336   4      3.4993551836987855      29.956018550056438      5.2105475048000001
   337   2      3.4993551836987855      29.956018550056438               2.9496935
   338   2      3.4993551836987855      29.956018550056438      7.0523489108000001
   339   2      3.4993551839532824      81.715711704854257      5.0635815537999997
   340   2      3.5741677458936842      31.731866542863454           13.4298776893
   341   2      3.5749531169952373      57.608444035518012           13.4298776893
   342   2       3.576264088345452      25.495302052020936      5.0635815537999997
   343   1       3.576264088599951       77.25499520681889      3.0874183849999999
   344   1       3.576264088599951       77.25499520681889      7.1900737958000001
   345   2      3.5765238591989883      5.8422127102548718           13.4298776893
   346   2      3.5945273472070007      83.400040330297443           13.4298776893
   347   4       3.653172993967273      21.034585554494502      5.2105475048000001
   348   2       3.653172993967273      21.034585554494502               2.9496935
   349   2       3.653172993967273      21.034585554494502      7.0523489108000001
   350   2       3.653172994221582      72.794278709292342      5.0635815537999997
   351   4      3.7198120480506729      39.728441450449182      13.808564961699998
   352   2      3.7198120480506729      39.728441450449182      11.293897032299999
   353   2      3.7198120480506729      39.728441450449182      15.579784652299999
   354   3      3.7205673954862184      65.601757364030902           11.8416575997
   355   3      3.7205673954862184      65.601757364030902           16.1275452197
   356   4      3.7213527665877613      91.478334856685109      13.808564961699998
   357   2      3.7213527665877613      91.478334856685109      11.293897032299999