(written by ASE)

17878 atoms
4 atom types

0.0      140.57239602909374  xlo xhi
0.0      140.57239602909374  ylo yhi
0.0      63.177851719700001  zlo zhi

Masses

     1       137.3269999646734 # Ba
     2      15.998999995884349 # O
     3      207.19999994669897 # Pb
     4      47.866999987686484 # Ti

Atoms # atomic

     1   4  3.8050623814407482e-05      84.157355978427915      13.808564961699998
     2   2  3.8050623814407482e-05      84.157355978427915      11.293897032299999
     3   2  3.8050623814407482e-05      84.157355978427915      15.579784652299999
     4   2  0.00017038447524732515      126.85185472900115           13.4298776893
     5   2  0.00021970134083004102      41.329101809954985           13.4298776893
     6   4  0.00039242820286072605      28.935741616795287      13.808564961699998
     7   2  0.00039242820286072605      28.935741616795287      11.293897032299999
     8   2  0.00039242820286072605      28.935741616795287      15.579784652299999
     9   2  0.00060532522953293387      13.868911292927001           13.4298776893
    10   3  0.00073765908088834181      56.563410043500497           11.8416575997
    11   3  0.00073765908088834181      56.563410043500497           16.1275452197
    12   3  0.00078697594697003871      111.61305315354788           11.8416575997
    13   3  0.00078697594697003871      111.61305315354788           16.1275452197
    14   2   0.0009597028095012424      99.219692960388116           13.4298776893
    15   4    0.028318371231006851      61.252637512472042      5.2105475048000001
    16   2    0.028318371231006851      61.252637512472042               2.9496935
    17   2    0.028318371231006851      61.252637512472042      7.0523489108000001
    18   2    0.028318371293435146      131.53883552647255      5.0635815537999997
    19   4    0.037258361841010577      139.17336630657462      13.808564961699998
    20   2    0.037258361841010577      139.17336630657462      11.293897032299999
    21   2    0.037258361841010577      139.17336630657462      15.579784652299999
    22   2    0.041184429141942078      68.890549512192649           13.4298776893
    23   2    0.084955114738539658      113.47171452253616      5.0635815537999997
    24   1    0.084955114800965362      43.185516507442927      3.0874183849999999
    25   1    0.084955114800965362      43.185516507442927      7.1900737958000001
    26   3    0.090568566153549676      26.170314969260581           11.8416575997
    27   3    0.090568566153549676      26.170314969260581           16.1275452197
    28   2    0.091135840759690334      96.454266312853605           13.4298776893
    29   4     0.14159185715285635      25.118395503381919      5.2105475048000001
    30   2     0.14159185715285635      25.118395503381919               2.9496935
    31   2     0.14159185715285635      25.118395503381919      7.0523489108000001
    32   2     0.14159185721528356      95.404593517382551      5.0635815537999997
    33   2     0.14444604507322911      124.02361100463401           13.4298776893
    34   4     0.14723756316337827      53.745287552160491      13.808564961699998
    35   2     0.14723756316337827      53.745287552160491      11.293897032299999
    36   2     0.14723756316337827      53.745287552160491      15.579784652299999
    37   2     0.19775624938676706      11.020559667320606           13.4298776893
    38   2       0.198228600660391      77.337472513446272      5.0635815537999997
    39   1     0.19822860072281687      7.0512744983527931      3.0874183849999999
    40   1     0.19822860072281687      7.0512744983527931      7.1900737958000001
    41   3     0.19832352399240641      81.304511010913075           11.8416575997
    42   3     0.19832352399240641      81.304511010913075           16.1275452197
    43   4     0.25163372830594893      108.87385570269396      13.808564961699998
    44   2     0.25163372830594893      108.87385570269396      11.293897032299999
    45   2     0.25163372830594893      108.87385570269396      15.579784652299999
    46   2     0.25442524639659664      38.595532250219982           13.4298776893
    47   4     0.25486534307470621       129.5565495233858      5.2105475048000001
    48   2     0.25486534307470621       129.5565495233858               2.9496935
    49   2     0.25486534307470621       129.5565495233858      7.0523489108000001
    50   2     0.25486534313738352        59.2703515082923      5.0635815537999997
    51   3     0.30494393261948671      136.44320039447413           11.8416575997
    52   3     0.30494393261948671      136.44320039447413           16.1275452197
    53   2     0.31150208658224132      41.203230504356142      5.0635815537999997
    54   1       0.311502086644668      111.48942851835666      3.0874183849999999
    55   1       0.311502086644668      111.48942851835666      7.1900737958000001
    56   2     0.32126033137189453      66.149172672792176           13.4298776893
    57   4     0.35825413693252472      23.440149057160632      13.808564961699998
    58   2     0.35825413693252472      23.440149057160632      11.293897032299999
    59   2     0.35825413693252472      23.440149057160632      15.579784652299999
    60   2     0.35882141153866581        93.7241004007535           13.4298776893
    61   4     0.36813882899680905      93.422307514295397      5.2105475048000001
    62   2     0.36813882899680905      93.422307514295397               2.9496935
    63   2     0.36813882899680905      93.422307514295397      7.0523489108000001
    64   2     0.36813882905923467      23.136109499202202      5.0635815537999997
    65   2     0.41213161585220315      121.29344509253377           13.4298776893
    66   3      0.4149231339428528      51.015121640060201           11.8416575997
    67   3      0.4149231339428528      51.015121640060201           16.1275452197
    68   2     0.42477557250434123      5.0689884952657644      5.0635815537999997
    69   1      0.4247755725667699      75.355186509266019      3.0874183849999999
    70   1      0.4247755725667699      75.355186509266019      7.1900737958000001
    71   2     0.46544182016574231      8.2903937552204994           13.4298776893
    72   4     0.46600909477088442      78.574345098813524      13.808564961699998
    73   2     0.46600909477088442      78.574345098813524      11.293897032299999
    74   2     0.46600909477088442      78.574345098813524      15.579784652299999
    75   4     0.48141231491865938      57.288065505205275      5.2105475048000001
    76   2     0.48141231491865938      57.288065505205275               2.9496935
    77   2     0.48141231491865938      57.288065505205275      7.0523489108000001
    78   2     0.48141231498083609       127.5742635192058      5.0635815537999997
    79   2     0.51875202447828306      35.859738447000716           13.4298776893
    80   3     0.51931929908442243      106.14368979059324           11.8416575997
    81   3     0.51931929908442243      106.14368979059324           16.1275452197
    82   2     0.53804905842619111      109.50714251526914      5.0635815537999997
    83   1     0.53804905848836992      39.220944500176273      3.0874183849999999
    84   1     0.53804905848836992      39.220944500176273      7.1900737958000001
    85   4      0.5726295033979597       133.7130344823743      13.808564961699998
    86   2      0.5726295033979597       133.7130344823743      11.293897032299999
    87   2      0.5726295033979597       133.7130344823743      15.579784652299999
    88   2     0.57542102148811014      63.434711029900335           13.4298776893
    89   4     0.59468580084050982      21.153823496115265      5.2105475048000001
    90   2     0.59468580084050982      21.153823496115265               2.9496935
    91   2     0.59468580084050982      21.153823496115265      7.0523489108000001
    92   2     0.59468580090318557      91.440021510115415      5.0635815537999997
    93   3     0.62593970771099994      20.709983145060214           11.8416575997
    94   3     0.62593970771099994      20.709983145060214           16.1275452197
    95   2     0.62650698231713886       90.99393448865321           13.4298776893
    96   2     0.65132254434804493      73.372900506179008      5.0635815537999997
    97   1     0.65132254441046955      3.0867024910857688      3.0874183849999999
    98   1     0.65132254441046955      3.0867024910857688      7.1900737958000001
    99   2     0.67981718663068191      118.56327918043367           13.4298776893
   100   4     0.68260870472082857      48.284955727960096      13.808564961699998
   101   2     0.68260870472082857      48.284955727960096      11.293897032299999
   102   2     0.68260870472082857      48.284955727960096      15.579784652299999
   103   4     0.70795928676261011       125.5919775161185      5.2105475048000001
   104   2     0.70795928676261011       125.5919775161185               2.9496935
   105   2     0.70795928676261011       125.5919775161185      7.0523489108000001
   106   2     0.70795928682503728      55.305779501024773      5.0635815537999997
   107   2     0.73312739094371804      5.5602278431204883           13.4298776893
   108   3     0.73369466554935958      75.844179186713106           11.8416575997
   109   3     0.73369466554935958      75.844179186713106           16.1275452197
   110   2     0.76459603026989331       37.23865849708924      5.0635815537999997
   111   1     0.76459603033232093      107.52485651108914      3.0874183849999999
   112   1     0.76459603033232093      107.52485651108914      7.1900737958000001
   113   2     0.78643759525775658      33.129572534900646           13.4298776893
   114   4     0.78700486986339924      103.41352387849356      13.808564961699998
   115   2     0.78700486986339924      103.41352387849356      11.293897032299999
   116   2     0.78700486986339924      103.41352387849356      15.579784652299999
   117   4     0.82123277268446226      89.457735507028374      5.2105475048000001
   118   2     0.82123277268446226      89.457735507028374               2.9496935
   119   2     0.82123277268446226      89.457735507028374      7.0523489108000001
   120   2     0.82123277274688733      19.171537491934895      5.0635815537999997
   121   3     0.84031507417693541      130.98286857027375           11.8416575997
   122   3     0.84031507417693541      130.98286857027375           16.1275452197
   123   2     0.84310659226708717      60.704545117800286           13.4298776893
   124   2     0.87786951619174425      1.1044164879989888      5.0635815537999997
   125   1     0.87786951625441967      71.390614501999011      3.0874183849999999
   126   1     0.87786951625441967      71.390614501999011      7.1900737958000001
   127   4     0.89362527848997531      17.979817232960297      13.808564961699998
   128   2     0.89362527848997531      17.979817232960297      11.293897032299999
   129   2     0.89362527848997531      17.979817232960297      15.579784652299999
   130   2     0.89419255309561518      88.263768576553048           13.4298776893
   131   4     0.93450625860631176      53.323493497938252      5.2105475048000001
   132   2     0.93450625860631176      53.323493497938252               2.9496935
   133   2     0.93450625860631176      53.323493497938252      7.0523489108000001
   134   2     0.93450625866873915      123.60969151193891      5.0635815537999997
   135   2     0.94750275740915491      115.83311326833338           13.4298776893
   136   3     0.95029427549980405      45.554789815859756           11.8416575997
   137   3     0.95029427549980405      45.554789815859756           16.1275452197
   138   2     0.99114300211384543      105.54257050800236      5.0635815537999997
   139   1      0.9911430021762726      35.256372492908874      3.0874183849999999
   140   1      0.9911430021762726      35.256372492908874      7.1900737958000001
   141   2      1.0008129617231929      2.8300619310201642           13.4298776893
   142   4      1.0013802363288329      73.114013274613256      13.808564961699998
   143   2      1.0013802363288329      73.114013274613256      11.293897032299999
   144   2      1.0013802363288329      73.114013274613256      15.579784652299999
   145   4      1.0477797445281622      17.189251488848363      5.2105475048000001
   146   2      1.0477797445281622      17.189251488848363               2.9496935
   147   2      1.0477797445281622      17.189251488848363      7.0523489108000001
   148   2      1.0477797445905896      87.475449502848633      5.0635815537999997
   149   2      1.0541231660357333      30.399406622800385           13.4298776893
   150   3      1.0546904406423732      100.68335796639316           11.8416575997
   151   3      1.0546904406423732      100.68335796639316           16.1275452197
   152   2      1.1044164880356957      69.408328498912226      5.0635815537999997
   153   1      1.1044164880981207      139.69452651291274      3.0874183849999999
   154   1      1.1044164880981207      139.69452651291274      7.1900737958000001
   155   4      1.1080006449554121      128.25270265817377      13.808564961699998
   156   2      1.1080006449554121      128.25270265817377      11.293897032299999
   157   2      1.1080006449554121      128.25270265817377      15.579784652299999
   158   2      1.1107921630455617      57.974379205699982           13.4298776893
   159   4      1.1610532304502632      121.62740550885148      5.2105475048000001
   160   2      1.1610532304502632      121.62740550885148               2.9496935
   161   2      1.1610532304502632      121.62740550885148      7.0523489108000001
   162   2      1.1610532305124399      51.341207493758255      5.0635815537999997
   163   3       1.161310849268451      15.249651320859783           11.8416575997
   164   3       1.161310849268451      15.249651320859783           16.1275452197
   165   2      1.1618781238745903      85.533602664452758           13.4298776893
   166   2      1.2151883281881313      113.10294735623334           13.4298776893
   167   2      1.2176899739575469      33.274086489822089      5.0635815537999997
   168   1      1.2176899740199745      103.56028450382261      3.0874183849999999
   169   1      1.2176899740199745      103.56028450382261      7.1900737958000001
   170   4      1.2179798462782812      42.824623903759651      13.808564961699998
   171   2      1.2179798462782812      42.824623903759651      11.293897032299999
   172   2      1.2179798462782812      42.824623903759651      15.579784652299999
   173   2      1.2684985325011688    0.099896018920121357           13.4298776893
   174   3      1.2690658071068091      70.383847362512782           11.8416575997
   175   3      1.2690658071068091      70.383847362512782           16.1275452197
   176   4      1.2743267163721148      85.493163499761607      5.2105475048000001
   177   2      1.2743267163721148      85.493163499761607               2.9496935
   178   2      1.2743267163721148      85.493163499761607      7.0523489108000001
   179   2        1.27432671643454      15.206965484668354      5.0635815537999997
   180   2      1.3218087368152081      27.669240710700151           13.4298776893
   181   4      1.3223760114203493      97.953192054293169      13.808564961699998
   182   2      1.3223760114203493      97.953192054293169      11.293897032299999
   183   2      1.3223760114203493      97.953192054293169      15.579784652299999
   184   2       1.330963459879648      137.71224050982545      5.0635815537999997
   185   1      1.3309634599420723      67.426042494732243      3.0874183849999999
   186   1      1.3309634599420723      67.426042494732243      7.1900737958000001
   187   3      1.3756862157338883      125.52253674607327           11.8416575997
   188   3      1.3756862157338883      125.52253674607327           16.1275452197
   189   2      1.3784777338240366      55.244213293599913           13.4298776893
   190   4      1.3876002022939651       49.35892149067147      5.2105475048000001
   191   2      1.3876002022939651       49.35892149067147               2.9496935
   192   2      1.3876002022939651       49.35892149067147      7.0523489108000001
   193   2      1.3876002023563918      119.64511950467198      5.0635815537999997
   194   4      1.4289964200474261      12.519485408760271      13.808564961699998
   195   2      1.4289964200474261      12.519485408760271      11.293897032299999
   196   2      1.4289964200474261      12.519485408760271      15.579784652299999
   197   2      1.4295636946535684       82.80343675235271           13.4298776893
   198   2      1.4442369458014994      101.57799850073509      5.0635815537999997
   199   1      1.4442369458639244      31.291800485641847      3.0874183849999999
   200   1      1.4442369458639244      31.291800485641847      7.1900737958000001
   201   2       1.482873898966607       110.3727814441333           13.4298776893
   202   3      1.4856654170567549      40.094457991659354           11.8416575997
   203   3      1.4856654170567549      40.094457991659354           16.1275452197
   204   4      1.5008736882158153       13.22467948158134      5.2105475048000001
   205   2      1.5008736882158153       13.22467948158134               2.9496935
   206   2      1.5008736882158153       13.22467948158134      7.0523489108000001
   207   2      1.5008736882784919      83.510877495581354      5.0635815537999997
   208   2      1.5361841032801442       137.9421261359137           13.4298776893
   209   4      1.5389756213702945      67.663802683440139      13.808564961699998
   210   2      1.5389756213702945      67.663802683440139      11.293897032299999
   211   2      1.5389756213702945      67.663802683440139      15.579784652299999
   212   2      1.5575104317233488      65.443756491645203      5.0635815537999997
   213   1      1.5575104317857773      135.72995450564571      3.0874183849999999
   214   1      1.5575104317857773      135.72995450564571      7.1900737958000001
   215   2      1.5894943075931833       24.93907479859989           13.4298776893
   216   3      1.5900615821998216      95.223026142192765           11.8416575997
   217   3      1.5900615821998216      95.223026142192765           16.1275452197
   218   4      1.6141471741379159       117.6628335015847      5.2105475048000001
   219   2      1.6141471741379159       117.6628335015847               2.9496935
   220   2      1.6141471741379159       117.6628335015847      7.0523489108000001
   221   2      1.6141471742003424      47.376635486491473      5.0635815537999997
   222   4      1.6433717865128632      122.79237083397342      13.808564961699998
   223   2      1.6433717865128632      122.79237083397342      11.293897032299999
   224   2      1.6433717865128632      122.79237083397342      15.579784652299999
   225   2      1.6461633046030131       52.51404738149958           13.4298776893
   226   2      1.6707839176451993       29.30951448255507      5.0635815537999997
   227   1      1.6707839177076242      99.595712496555592      3.0874183849999999
   228   1      1.6707839177076242      99.595712496555592      7.1900737958000001
   229   3      1.6966819908259012      9.7893194966597612           11.8416575997
   230   3      1.6966819908259012      9.7893194966597612           16.1275452197
   231   2      1.6972492654310432      80.073270840252789           13.4298776893
   232   4       1.727420660059767      81.528591492494328      5.2105475048000001
   233   2       1.727420660059767      81.528591492494328               2.9496935
   234   2       1.727420660059767      81.528591492494328      7.0523489108000001
   235   2      1.7274206601221935      11.242393477401343      5.0635815537999997
   236   4       1.749992195139441      37.358664188440322      13.808564961699998
   237   2       1.749992195139441      37.358664188440322      11.293897032299999
   238   2       1.749992195139441      37.358664188440322      15.579784652299999
   239   2       1.750559469745582      107.64261553203282           13.4298776893
   240   2      1.7840574035673011      133.74766850255841      5.0635815537999997
   241   1      1.7840574036297263      63.461470487465199      3.0874183849999999
   242   1      1.7840574036297263      63.461470487465199      7.1900737958000001
   243   2      1.8038696740586182      135.21196022381349           13.4298776893
   244   3       1.806661192149267      64.933636771339778           11.8416575997
   245   3       1.806661192149267      64.933636771339778           16.1275452197
   246   4      1.8406941459816175      45.394349483404447      5.2105475048000001
   247   2      1.8406941459816175      45.394349483404447               2.9496935
   248   2      1.8406941459816175      45.394349483404447      7.0523489108000001
   249   2      1.8406941460440447      115.68054749740493      5.0635815537999997
   250   2       1.857179878372158      22.208908886499785           13.4298776893
   251   4      1.8577471529777987      92.492860230092845      13.808564961699998
   252   2      1.8577471529777987      92.492860230092845      11.293897032299999
   253   2      1.8577471529777987      92.492860230092845      15.579784652299999
   254   2      1.8973308894889012      97.613426493469049      5.0635815537999997
   255   1       1.897330889551577      27.327228478375076      3.0874183849999999
   256   1       1.897330889551577      27.327228478375076      7.1900737958000001
   257   3      1.9110573572908391      120.06220492187295           11.8416575997
   258   3      1.9110573572908391      120.06220492187295           16.1275452197
   259   2       1.913848875381488      49.783881469399525           13.4298776893
   260   4      1.9539676319034676      9.2601074743141893      5.2105475048000001
   261   2      1.9539676319034676      9.2601074743141893               2.9496935
   262   2      1.9539676319034676      9.2601074743141893      7.0523489108000001
   263   2      1.9539676319658947      79.546305488314772      5.0635815537999997
   264   4       1.964367561605376      7.0591535845600601      13.808564961699998
   265   2       1.964367561605376      7.0591535845600601      11.293897032299999
   266   2       1.964367561605376      7.0591535845600601      15.579784652299999
   267   2      1.9649348362105172      77.343104928152684           13.4298776893
   268   2       2.010604375411003      61.479184484378429      5.0635815537999997
   269   1      2.0106043754734264      131.76538249837895      3.0874183849999999
   270   1      2.0106043754734264      131.76538249837895      7.1900737958000001
   271   3      2.0176777659179166       34.62849827633984           11.8416575997
   272   3      2.0176777659179166       34.62849827633984           16.1275452197
   273   2      2.0182450405240577      104.91244961993277           13.4298776893
   274   4      2.0672411178255672      113.69826149431769      5.2105475048000001
   275   2      2.0672411178255672      113.69826149431769               2.9496935
   276   2      2.0672411178255672      113.69826149431769      7.0523489108000001
   277   2      2.0672411178879955      43.412063479223953      5.0635815537999997
   278   2      2.0715552448375929      132.48179431171332           13.4298776893
   279   4      2.0743467629277448      62.203470859239658      13.808564961699998
   280   2      2.0743467629277448      62.203470859239658      11.293897032299999
   281   2      2.0743467629277448      62.203470859239658      15.579784652299999
   282   2      2.1238778613328524      25.344942475288292      5.0635815537999997
   283   1      2.1238778613952802      95.631140489288811      3.0874183849999999
   284   1      2.1238778613952802      95.631140489288811      7.1900737958000001
   285   2      2.1248654491506347      19.478742974399527           13.4298776893
   286   3      2.1254327237567736       89.76269431799237           11.8416575997
   287   3      2.1254327237567736       89.76269431799237           16.1275452197
   288   4       2.178742928070315      117.33203900977303      13.808564961699998
   289   2       2.178742928070315      117.33203900977303      11.293897032299999
   290   2       2.178742928070315      117.33203900977303      15.579784652299999
   291   4      2.1805146037471688      77.564019485227803      5.2105475048000001
   292   2      2.1805146037471688      77.564019485227803               2.9496935
   293   2      2.1805146037471688      77.564019485227803      7.0523489108000001
   294   2      2.1805146038095966      7.2778214701344437      5.0635815537999997
   295   2      2.1815344461609629      47.053715557299199           13.4298776893
   296   3      2.2320531323833528      4.3289876724593608           11.8416575997
   297   3      2.2320531323833528      4.3289876724593608           16.1275452197
   298   2       2.232620406988993      74.612939016052465           13.4298776893
   299   2      2.2371513472547049      129.78309649529191      5.0635815537999997
   300   1      2.2371513473171305      59.496898480198432      3.0874183849999999
   301   1      2.2371513473171305      59.496898480198432      7.1900737958000001
   302   4      2.2853633366963915      31.898332364239955      13.808564961699998
   303   2      2.2853633366963915      31.898332364239955      11.293897032299999
   304   2      2.2853633366963915      31.898332364239955      15.579784652299999
   305   2      2.2859306113030322      102.18228370783274           13.4298776893
   306   4      2.2937880896692713      41.429777476137417      5.2105475048000001
   307   2      2.2937880896692713      41.429777476137417               2.9496935
   308   2      2.2937880896692713      41.429777476137417      7.0523489108000001
   309   2      2.2937880897316991      111.71597549013801      5.0635815537999997
   310   2      2.3392408156160696      129.75162839961303           13.4298776893
   311   3       2.342032333706221      59.473304947139404           11.8416575997
   312   3       2.342032333706221      59.473304947139404           16.1275452197
   313   2      2.3504248331768025      93.648854486201529      5.0635815537999997
   314   1      2.3504248332392299      23.362656471108302      3.0874183849999999
   315   1      2.3504248332392299      23.362656471108302      7.1900737958000001
   316   2      2.3925510199296096      16.748577062299447           13.4298776893
   317   4      2.3931182945352516      87.032528405892378      13.808564961699998
   318   2      2.3931182945352516      87.032528405892378      11.293897032299999
   319   2      2.3931182945352516      87.032528405892378      15.579784652299999
   320   4      2.4070615755913711      5.2955354670470394      5.2105475048000001
   321   2      2.4070615755913711      5.2955354670470394               2.9496935
   322   2      2.4070615755913711      5.2955354670470394      7.0523489108000001
   323   2      2.4070615756537976       75.58173348104755      5.0635815537999997
   324   3      2.4464284988482894      114.60187309767255           11.8416575997
   325   3      2.4464284988482894      114.60187309767255           16.1275452197
   326   2      2.4492200169389386       44.32354964519908           13.4298776893
   327   2      2.4636983190986554      57.514612477111392      5.0635815537999997
   328   1      2.4636983191610797      127.80081049111192      3.0874183849999999
   329   1      2.4636983191610797      127.80081049111192      7.1900737958000001
   330   4      2.4997387031623273      1.5988217603596615      13.808564961699998
   331   2      2.4997387031623273      1.5988217603596615      11.293897032299999
   332   2      2.4997387031623273      1.5988217603596615      15.579784652299999
   333   2      2.5003059777674683       71.88277310395236           13.4298776893
   334   4      2.5203350615129727      109.73368948705102      5.2105475048000001
   335   2      2.5203350615129727      109.73368948705102               2.9496935
   336   2      2.5203350615129727      109.73368948705102      7.0523489108000001
   337   2      2.5203350615756488      39.447491471957171      5.0635815537999997
   338   3      2.5530489074753677      29.168166452139474           11.8416575997
   339   3      2.5530489074753677      29.168166452139474           16.1275452197
   340   2       2.553616182081007      99.452117795732448           13.4298776893
   341   2      2.5769718050205048      21.380370468021273      5.0635815537999997
   342   1      2.5769718050830575      91.666568482021916      3.0874183849999999
   343   1      2.5769718050830575      91.666568482021916      7.1900737958000001
   344   2      2.6069263863950467      127.02146248751292           13.4298776893
   345   4       2.609717904485195      56.743139035039313      13.808564961699998
   346   2       2.609717904485195      56.743139035039313      11.293897032299999
   347   2       2.609717904485195      56.743139035039313      15.579784652299999
   348   4      2.6336085474350726      73.599447477960538      5.2105475048000001
   349   2      2.6336085474350726      73.599447477960538               2.9496935
   350   2      2.6336085474350726      73.599447477960538      7.0523489108000001
   351   2      2.6336085474974986      3.3132494628674802      5.0635815537999997
   352   2      2.6602365907075858      14.018411150199125           13.4298776893
   353   3      2.6608038653142265       84.30236249379189           11.8416575997
   354   3      2.6608038653142265       84.30236249379189           16.1275452197
   355   2      2.6902452909423533      125.81852448802508      5.0635815537999997
   356   1      2.6902452910047838      55.532326472931906      3.0874183849999999
   357   1      2.6902452910047838      55.532326472931906      7.1900737958000001