(written by ASE)

16667 atoms
4 atom types

0.0      135.73155859364851  xlo xhi
0.0      135.73155859364851  ylo yhi
0.0      63.177851719700001  zlo zhi

Masses

     1       137.3269999646734 # Ba
     2      15.998999995884349 # O
     3      207.19999994669897 # Pb
     4      47.866999987686484 # Ti

Atoms # atomic

     1   2  2.2194150178402317e-06      118.79356696102899           13.4298776893
     2   2   1.298603397412051e-05      73.487139371588626           13.4298776893
     3   2  2.8191483095837478e-05      130.03628711055748           13.4298776893
     4   2  3.2630313213827857e-05      96.160303845317898           13.4298776893
     5   2  4.3396932216748052e-05      50.853876255877793           13.4298776893
     6   2  4.7835762386604909e-05      16.977892990638168           13.4298776893
     7   2  5.8602381216221255e-05      107.40302399484665           13.4298776893
     8   2  0.00012386300775029708      28.260514498185405           13.4298776893
     9   2  0.00013906845686384727      84.809662237154143           13.4298776893
    10   2  0.00015427390587054822      5.6272513824745705           13.4298776893
    11   2  0.00016947935511355875      62.176399121443175           13.4298776893
    12   2  0.00099756230706222635      39.538582493975134           13.4298776893
    13   2    0.029328340302499738      79.919727132560709      5.0635815537999997
    14   4    0.029328340528661144      12.053947835235151      5.2105475048000001
    15   2    0.029328340528661144      12.053947835235151               2.9496935
    16   2    0.029328340528661144      12.053947835235151      7.0523489108000001
    17   1    0.087985020265199471      36.161843506205571      3.0874183849999999
    18   1    0.087985020265199471      36.161843506205571      7.1900737958000001
    19   2    0.087985020491837887       104.0276228025284      5.0635815537999997
    20   2     0.14664170123065803      128.13551847395192      5.0635815537999997
    21   4     0.14664170145705951      60.269739176626139      5.2105475048000001
    22   2     0.14664170145705951      60.269739176626139               2.9496935
    23   2     0.14664170145705951      60.269739176626139      7.0523489108000001
    24   1      0.2052983811931158      84.377634847596966      3.0874183849999999
    25   1      0.2052983811931158      84.377634847596966      7.1900737958000001
    26   2     0.20529838141975393      16.511855550271036      5.0635815537999997
    27   2     0.26395506215832931      40.619751221694742      5.0635815537999997
    28   4     0.26395506238497873      108.48553051801714      5.2105475048000001
    29   2     0.26395506238497873      108.48553051801714               2.9496935
    30   2     0.26395506238497873      108.48553051801714      7.0523489108000001
    31   3     0.27794301819267264      80.463617358305015           11.8416575997
    32   3     0.27794301819267264      80.463617358305015           16.1275452197
    33   4     0.27809951151344697      69.152877108159316      13.808564961699998
    34   2     0.27809951151344697      69.152877108159316      11.293897032299999
    35   2     0.27809951151344697      69.152877108159316      15.579784652299999
    36   3     0.27825600483458091      57.842136858014584           11.8416575997
    37   3     0.27825600483458091      57.842136858014584           16.1275452197
    38   3     0.27839729270658881      125.71380746254907           11.8416575997
    39   3     0.27839729270658881      125.71380746254907           16.1275452197
    40   4     0.27841249815510938      46.531396607869382      13.808564961699998
    41   2     0.27841249815510938      46.531396607869382      11.293897032299999
    42   2     0.27841249815510938      46.531396607869382      15.579784652299999
    43   4     0.27855378602713254      114.40306721240384      13.808564961699998
    44   2     0.27855378602713254      114.40306721240384      11.293897032299999
    45   2     0.27855378602713254      114.40306721240384      15.579784652299999
    46   3     0.27856899147648684      35.220656357724174           11.8416575997
    47   3     0.27856899147648684      35.220656357724174           16.1275452197
    48   3     0.27871027934825426      103.09232696225865           11.8416575997
    49   3     0.27871027934825426      103.09232696225865           16.1275452197
    50   4     0.27872548479701981      23.909916107578479      13.808564961699998
    51   2     0.27872548479701981      23.909916107578479      11.293897032299999
    52   2     0.27872548479701981      23.909916107578479      15.579784652299999
    53   4     0.27886677266903442       91.78158671211294      13.808564961699998
    54   2     0.27886677266903442       91.78158671211294      11.293897032299999
    55   2     0.27886677266903442       91.78158671211294      15.579784652299999
    56   3     0.27888197811791399      12.599175857433748           11.8416575997
    57   3     0.27888197811791399      12.599175857433748           16.1275452197
    58   4     0.27903847143892713      1.2884356072880556      13.808564961699998
    59   2     0.27903847143892713      1.2884356072880556      11.293897032299999
    60   2     0.27903847143892713      1.2884356072880556      15.579784652299999
    61   1     0.32261174212102034      132.59342618898773      3.0874183849999999
    62   1     0.32261174212102034      132.59342618898773      7.1900737958000001
    63   2      0.3226117423474234      64.727646891662687      5.0635815537999997
    64   2      0.3812684230862502      88.835542563085852      5.0635815537999997
    65   4     0.38126842331289135      20.969763265759962      5.2105475048000001
    66   2     0.38126842331289135      20.969763265759962               2.9496935
    67   2     0.38126842331289135      20.969763265759962      7.0523489108000001
    68   1     0.43992510304894739      45.077658936730678      3.0874183849999999
    69   1     0.43992510304894739      45.077658936730678      7.1900737958000001
    70   2     0.43992510327558643      112.94343823305339      5.0635815537999997
    71   2     0.49858178401416359      1.3197753108284349      5.0635815537999997
    72   4     0.49858178424080429      69.185554607151076      5.2105475048000001
    73   2     0.49858178424080429      69.185554607151076               2.9496935
    74   2     0.49858178424080429      69.185554607151076      7.0523489108000001
    75   1     0.55723846397686116      93.293450278121512      3.0874183849999999
    76   1     0.55723846397686116      93.293450278121512      7.1900737958000001
    77   2     0.55723846420349943      25.427670980795906      5.0635815537999997
    78   2      0.6105151914395337      87.449667409669033           13.4298776893
    79   2     0.61067168476066258      76.138927159523362           13.4298776893
    80   2     0.61082817808168022      64.828186909378147           13.4298776893
    81   2     0.61096946595369339       132.6998575139126           13.4298776893
    82   2     0.61098467140233448      53.517446659232931           13.4298776893
    83   2     0.61112595927483171      121.38911726376692           13.4298776893
    84   2     0.61114116472358915      42.206706409087722           13.4298776893
    85   2     0.61128245259536229      110.07837701362267           13.4298776893
    86   2     0.61129765804448377      30.895966158942031           13.4298776893
    87   2     0.61143894591626069      98.767636763476986           13.4298776893
    88   2     0.61145415136562031      19.585225908797298           13.4298776893
    89   2     0.61161064468639215      8.2744856586516082           13.4298776893
    90   2     0.61589514494256148      49.535566652219153      5.0635815537999997
    91   4     0.61589514516872523      117.40134594854219      5.2105475048000001
    92   2     0.61589514516872523      117.40134594854219               2.9496935
    93   2     0.61589514516872523      117.40134594854219      7.0523489108000001
    94   1     0.67455182490525589      5.7776830258640182      3.0874183849999999
    95   1     0.67455182490525589      5.7776830258640182      7.1900737958000001
    96   2     0.67455182513141176      73.643462322187148      5.0635815537999997
    97   2     0.73320850587047548      97.751357993610171      5.0635815537999997
    98   4     0.73320850609663524      29.885578696284952      5.2105475048000001
    99   2     0.73320850609663524      29.885578696284952               2.9496935
   100   2     0.73320850609663524      29.885578696284952      7.0523489108000001
   101   1     0.79186518583317211      53.993474367255132      3.0874183849999999
   102   1     0.79186518583317211      53.993474367255132      7.1900737958000001
   103   2     0.79186518605932954      121.85925366357822      5.0635815537999997
   104   2     0.85052186679839115      10.235590741352883      5.0635815537999997
   105   4     0.85052186702479193      78.101370037676006      5.2105475048000001
   106   2     0.85052186702479193      78.101370037676006               2.9496935
   107   2     0.85052186702479193      78.101370037676006      7.0523489108000001
   108   1     0.90917854676108278      102.20926570864633      3.0874183849999999
   109   1     0.90917854676108278      102.20926570864633      7.1900737958000001
   110   2      0.9091785469872451      34.343486411320896      5.0635815537999997
   111   4     0.94324385800801425      83.124977210886897      13.808564961699998
   112   2     0.94324385800801425      83.124977210886897      11.293897032299999
   113   2     0.94324385800801425      83.124977210886897      15.579784652299999
   114   3     0.94340035132913946      71.814236960741709           11.8416575997
   115   3     0.94340035132913946      71.814236960741709           16.1275452197
   116   4     0.94355684464968015       60.50349671059697      13.808564961699998
   117   2     0.94355684464968015       60.50349671059697      11.293897032299999
   118   2     0.94355684464968015       60.50349671059697      15.579784652299999
   119   4     0.94369813252194101      128.37516731513097      13.808564961699998
   120   2     0.94369813252194101      128.37516731513097      11.293897032299999
   121   2     0.94369813252194101      128.37516731513097      15.579784652299999
   122   3     0.94371333797057411      49.192756460452237           11.8416575997
   123   3     0.94371333797057411      49.192756460452237           16.1275452197
   124   3     0.94385462584282498      117.06442706498623           11.8416575997
   125   3     0.94385462584282498      117.06442706498623           16.1275452197
   126   4     0.94386983129158442       37.88201621030607      13.808564961699998
   127   2     0.94386983129158442       37.88201621030607      11.293897032299999
   128   2     0.94386983129158442       37.88201621030607      15.579784652299999
   129   4     0.94401111916336289      105.75368681484102      13.808564961699998
   130   2     0.94401111916336289      105.75368681484102      11.293897032299999
   131   2     0.94401111916336289      105.75368681484102      15.579784652299999
   132   3     0.94402632461272173       26.57127596016085           11.8416575997
   133   3     0.94402632461272173       26.57127596016085           16.1275452197
   134   3     0.94416761248449044      94.442946564695802           11.8416575997
   135   3     0.94416761248449044      94.442946564695802           16.1275452197
   136   4     0.94418281793325443      15.260535710016125      13.808564961699998
   137   2     0.94418281793325443      15.260535710016125      11.293897032299999
   138   2     0.94418281793325443      15.260535710016125      15.579784652299999
   139   3     0.94433931125438852      3.9497954598709151           11.8416575997
   140   3     0.94433931125438852      3.9497954598709151           16.1275452197
   141   2     0.96783522772630592      58.451382082743997      5.0635815537999997
   142   4     0.96783522795246957      126.31716137906729      5.2105475048000001
   143   2     0.96783522795246957      126.31716137906729               2.9496935
   144   2     0.96783522795246957      126.31716137906729      7.0523489108000001
   145   1      1.0264919076890018      14.693498456388827      3.0874183849999999
   146   1      1.0264919076890018      14.693498456388827      7.1900737958000001
   147   2      1.0264919079151664      82.559277752712433      5.0635815537999997
   148   2      1.0851485886542136       106.6671734241352      5.0635815537999997
   149   4      1.0851485888806209      38.801394126809946      5.2105475048000001
   150   2      1.0851485888806209      38.801394126809946               2.9496935
   151   2      1.0851485888806209      38.801394126809946      7.0523489108000001
   152   1      1.1438052686169162      62.909289797780062      3.0874183849999999
   153   1      1.1438052686169162      62.909289797780062      7.1900737958000001
   154   2      1.1438052688430778      130.77506909410337      5.0635815537999997
   155   2      1.2024619495821389      19.151406171877813      5.0635815537999997
   156   4      1.2024619498085436      87.017185468201163      5.2105475048000001
   157   2      1.2024619498085436      87.017185468201163               2.9496935
   158   2      1.2024619498085436      87.017185468201163      7.0523489108000001
   159   1      1.2611186295448342      111.12508113917117      3.0874183849999999
   160   1      1.2611186295448342      111.12508113917117      7.1900737958000001
   161   2      1.2611186297709938      43.259301841846131      5.0635815537999997
   162   2       1.275972524576011       78.80028701210621           13.4298776893
   163   2      1.2761290178968989      67.489546761960526           13.4298776893
   164   2      1.2762855112179134      56.178806511815317           13.4298776893
   165   2      1.2764267990901765      124.05047711634977           13.4298776893
   166   2      1.2764420045388112      44.868066261670101           13.4298776893
   167   2       1.276583292410582      112.73973686620506           13.4298776893
   168   2      1.2765984978601874      33.557326011524403           13.4298776893
   169   2      1.2767397857318421      101.42899661605935           13.4298776893
   170   2      1.2767549911807201      22.246585761379677           13.4298776893
   171   2       1.276896279052731      90.118256365914149           13.4298776893
   172   2      1.2769114845018537      10.935845511234467           13.4298776893
   173   2       1.277067977822621       135.3566638547378           13.4298776893
   174   2      1.3197753105100547      67.367197513269033      5.0635815537999997
   175   4      1.3197753107366916      135.23297680959192      5.2105475048000001
   176   2      1.3197753107366916      135.23297680959192               2.9496935
   177   2      1.3197753107366916      135.23297680959192      7.0523489108000001
   178   1      1.3784319904727453      23.609313886914244      3.0874183849999999
   179   1      1.3784319904727453      23.609313886914244      7.1900737958000001
   180   2      1.3784319906993912      91.475093183236879      5.0635815537999997
   181   2      1.4370886714379709      115.58298885466003      5.0635815537999997
   182   4      1.4370886716646092       47.71720955733462      5.2105475048000001
   183   2      1.4370886716646092       47.71720955733462               2.9496935
   184   2      1.4370886716646092       47.71720955733462      7.0523489108000001
   185   1      1.4957453514006642      71.825105228304906      3.0874183849999999
   186   1      1.4957453514006642      71.825105228304906      7.1900737958000001
   187   2      1.4957453516273034      3.9593259309794671      5.0635815537999997
   188   2      1.5544020323661236      28.067221602403588      5.0635815537999997
   189   4       1.554402032592525      95.933000898725624      5.2105475048000001
   190   2       1.554402032592525      95.933000898725624               2.9496935
   191   2       1.554402032592525      95.933000898725624      7.0523489108000001
   192   3      1.6085446978234668      85.786337063469773           11.8416575997
   193   3      1.6085446978234668      85.786337063469773           16.1275452197
   194   4      1.6087011911440068      74.475596813324543      13.808564961699998
   195   2      1.6087011911440068      74.475596813324543      11.293897032299999
   196   2      1.6087011911440068      74.475596813324543      15.579784652299999
   197   3      1.6088576844653821      63.164856563179342           11.8416575997
   198   3      1.6088576844653821      63.164856563179342           16.1275452197
   199   3      1.6089989723373959      131.03652716771381           11.8416575997
   200   3      1.6089989723373959      131.03652716771381           16.1275452197
   201   4      1.6090141777859135      51.854116313034133      13.808564961699998
   202   2      1.6090141777859135      51.854116313034133      11.293897032299999
   203   2      1.6090141777859135      51.854116313034133      15.579784652299999
   204   4      1.6091554656579303      119.72578691756812      13.808564961699998
   205   2      1.6091554656579303      119.72578691756812      11.293897032299999
   206   2      1.6091554656579303      119.72578691756812      15.579784652299999
   207   3      1.6091706711072908      40.543376062888925           11.8416575997
   208   3      1.6091706711072908      40.543376062888925           16.1275452197
   209   3      1.6093119589790612      108.41504666742338           11.8416575997
   210   3      1.6093119589790612      108.41504666742338           16.1275452197
   211   4      1.6093271644275822      29.232635812743712      13.808564961699998
   212   2      1.6093271644275822      29.232635812743712      11.293897032299999
   213   2      1.6093271644275822      29.232635812743712      15.579784652299999
   214   4       1.609468452299599      97.104306417278181      13.808564961699998
   215   2       1.609468452299599      97.104306417278181      11.293897032299999
   216   2       1.609468452299599      97.104306417278181      15.579784652299999
   217   3      1.6094836577489549      17.921895562598504           11.8416575997
   218   3      1.6094836577489549      17.921895562598504           16.1275452197
   219   4      1.6096401510698495      6.6111553124528095      13.808564961699998
   220   2      1.6096401510698495      6.6111553124528095      11.293897032299999
   221   2      1.6096401510698495      6.6111553124528095      15.579784652299999
   222   1       1.613058712328576      120.04089656969599      3.0874183849999999
   223   1       1.613058712328576      120.04089656969599      7.1900737958000001
   224   2      1.6130587125552185      52.175117272370585      5.0635815537999997
   225   2      1.6717153932940385      76.283012943794574      5.0635815537999997
   226   4      1.6717153935204387      8.4172336464683326      5.2105475048000001
   227   2      1.6717153935204387      8.4172336464683326               2.9496935
   228   2      1.6717153935204387      8.4172336464683326      7.0523489108000001
   229   1      1.7303720732567347      32.525129317438932      3.0874183849999999
   230   1      1.7303720732567347      32.525129317438932      7.1900737958000001
   231   2      1.7303720734831309      100.39090861376175      5.0635815537999997
   232   2      1.7890287542217163      124.49880428518533      5.0635815537999997
   233   4      1.7890287544483523       56.63302498785945      5.2105475048000001
   234   2      1.7890287544483523       56.63302498785945               2.9496935
   235   2      1.7890287544483523       56.63302498785945      7.0523489108000001
   236   1      1.8476854341848852      80.740920658829836      3.0874183849999999
   237   1      1.8476854341848852      80.740920658829836      7.1900737958000001
   238   2      1.8476854344110492      12.875141361504399      5.0635815537999997
   239   2      1.9063421151501132      36.983037032927555      5.0635815537999997
   240   4      1.9063421153762725      104.84881632925068      5.2105475048000001
   241   2      1.9063421153762725      104.84881632925068               2.9496935
   242   2      1.9063421153762725      104.84881632925068      7.0523489108000001
   243   2      1.9412733643912308      81.461646864688603           13.4298776893
   244   2      1.9414298577126043       70.15090661454289           13.4298776893
   245   2      1.9415863510331384      58.840166364398165           13.4298776893
   246   2      1.9417276389053892      126.71183696893216           13.4298776893
   247   2       1.941742844354273      47.529426114252956           13.4298776893
   248   2      1.9418841322261633      115.40109671878743           13.4298776893
   249   2      1.9418993376752862      36.218685864107265           13.4298776893
   250   2      1.9420406255470652      104.09035646864223           13.4298776893
   251   2      1.9420558309964238      24.907945613962053           13.4298776893
   252   2      1.9421971188680687      92.779616218496997           13.4298776893
   253   2      1.9422123243171943      13.597205363816363           13.4298776893
   254   2      1.9423688176383289      2.2864651136716341           13.4298776893
   255   1      1.9649987951125629      128.95671200022139      3.0874183849999999
   256   1      1.9649987951125629      128.95671200022139      7.1900737958000001
   257   2      1.9649987953389614      61.090932702895628      5.0635815537999997
   258   2      2.0236554760780301       85.19882837431868      5.0635815537999997
   259   4      2.0236554763041852      17.333049076993262      5.2105475048000001
   260   2      2.0236554763041852      17.333049076993262               2.9496935
   261   2      2.0236554763041852      17.333049076993262      7.0523489108000001
   262   1      2.0823121560402389      41.440944747964103      3.0874183849999999
   263   1      2.0823121560402389      41.440944747964103      7.1900737958000001
   264   2      2.0823121562668776      109.30672404428663      5.0635815537999997
   265   2      2.1409688370059459      133.41461971570982      5.0635815537999997
   266   4      2.1409688372323421      65.548840418384501      5.2105475048000001
   267   2      2.1409688372323421      65.548840418384501               2.9496935
   268   2      2.1409688372323421      65.548840418384501      7.0523489108000001
   269   1       2.199625516968637      89.656736089354737      3.0874183849999999
   270   1       2.199625516968637      89.656736089354737      7.1900737958000001
   271   2      2.1996255171947943      21.790956792029327      5.0635815537999997
   272   2      2.2582821979338563      45.898852463452492      5.0635815537999997
   273   4      2.2582821981600154      113.76463175977568      5.2105475048000001
   274   2      2.2582821981600154      113.76463175977568               2.9496935
   275   2      2.2582821981600154      113.76463175977568      7.0523489108000001
   276   3        2.27400203095995      77.136956665906936           11.8416575997
   277   3        2.27400203095995      77.136956665906936           16.1275452197
   278   4      2.2741585242806011      65.826216415761721      13.808564961699998
   279   2      2.2741585242806011      65.826216415761721      11.293897032299999
   280   2      2.2741585242806011      65.826216415761721      15.579784652299999
   281   3      2.2743150176013751      54.515476165616995           11.8416575997
   282   3      2.2743150176013751      54.515476165616995           16.1275452197
   283   3       2.274456305473866      122.38714677015099           11.8416575997
   284   3       2.274456305473866      122.38714677015099           16.1275452197
   285   4      2.2744715109225067      43.204735915471304      13.808564961699998
   286   2      2.2744715109225067      43.204735915471304      11.293897032299999
   287   2      2.2744715109225067      43.204735915471304      15.579784652299999
   288   4      2.2746127987941662      111.07640652000624      13.808564961699998
   289   2      2.2746127987941662      111.07640652000624      11.293897032299999
   290   2      2.2746127987941662      111.07640652000624      15.579784652299999
   291   3      2.2746280042432843      31.893995665326091           11.8416575997
   292   3      2.2746280042432843      31.893995665326091           16.1275452197
   293   3      2.2747692921152916       99.76566626986056           11.8416575997
   294   3      2.2747692921152916       99.76566626986056           16.1275452197
   295   4      2.2747844975641769      20.583255415180879      13.808564961699998
   296   2      2.2747844975641769      20.583255415180879      11.293897032299999
   297   2      2.2747844975641769      20.583255415180879      15.579784652299999
   298   4      2.2749257854363059      88.454926019714875      13.808564961699998
   299   2      2.2749257854363059      88.454926019714875      11.293897032299999
   300   2      2.2749257854363059      88.454926019714875      15.579784652299999
   301   3      2.2749409908851899       9.272515165035669           11.8416575997
   302   3      2.2749409908851899       9.272515165035669           16.1275452197
   303   4       2.275097484206082      133.69333350853898      13.808564961699998
   304   2       2.275097484206082      133.69333350853898      11.293897032299999
   305   2       2.275097484206082      133.69333350853898      15.579784652299999
   306   1       2.316938877896551         2.1409688370972      3.0874183849999999
   307   1       2.316938877896551         2.1409688370972      7.1900737958000001
   308   2      2.3169388781229543        70.0067481334208      5.0635815537999997
   309   2      2.3755955588617703      94.114643804843638      5.0635815537999997
   310   4      2.3755955590882909      26.248864507518675      5.2105475048000001
   311   2      2.3755955590882909      26.248864507518675               2.9496935
   312   2      2.3755955590882909      26.248864507518675      7.0523489108000001
   313   1      2.4342522388244658        50.3567601784885      3.0874183849999999
   314   1      2.4342522388244658        50.3567601784885      7.1900737958000001
   315   2      2.4342522390506196      118.22253947481144      5.0635815537999997
   316   2      2.4929089197896861      6.5988765525861863      5.0635815537999997
   317   4      2.4929089200163266      74.464655848908947      5.2105475048000001
   318   2      2.4929089200163266      74.464655848908947               2.9496935
   319   2      2.4929089200163266      74.464655848908947      7.0523489108000001
   320   1      2.5515655997523896      98.572551519879596      3.0874183849999999
   321   1      2.5515655997523896      98.572551519879596      7.1900737958000001
   322   2      2.5515655999785403      30.706772222554264      5.0635815537999997
   323   2      2.6065742042065745      84.123006717271437           13.4298776893
   324   2        2.60673069752746      72.812266467125767           13.4298776893
   325   2      2.6068871908490774      61.501526216980061           13.4298776893
   326   2      2.6070284787207343      129.37319682151502           13.4298776893
   327   2      2.6070436841696152      50.190785966834852           13.4298776893
   328   2      2.6071849720416269      118.06245657136934           13.4298776893
   329   2      2.6072001774909896      38.880045716689644           13.4298776893
   330   2      2.6073414653626394      106.75171632122459           13.4298776893
   331   2      2.6073566708115208      27.569305466544431           13.4298776893
   332   2      2.6074979586835321      95.440976071078907           13.4298776893
   333   2      2.6075131641324152      16.258565216399703           13.4298776893
   334   2      2.6076696574534286      4.9478249662540108           13.4298776893
   335   2      2.6102222807176032      54.814667893977415      5.0635815537999997
   336   4       2.610222280944241      122.68044719030037      5.2105475048000001
   337   2       2.610222280944241      122.68044719030037               2.9496935
   338   2       2.610222280944241      122.68044719030037      7.0523489108000001
   339   1      2.6688789606802965      11.056784267622131      3.0874183849999999
   340   1      2.6688789606802965      11.056784267622131      7.1900737958000001
   341   2      2.6688789609069392      78.922563563945261      5.0635815537999997
   342   2      2.7275356416455114      103.03045923536853      5.0635815537999997
   343   4      2.7275356418721612      35.164679938043001      5.2105475048000001
   344   2      2.7275356418721612      35.164679938043001               2.9496935
   345   2      2.7275356418721612      35.164679938043001      7.0523489108000001
   346   1      2.7861923216082101      59.272575609013607      3.0874183849999999
   347   1      2.7861923216082101      59.272575609013607      7.1900737958000001
   348   2      2.7861923218348612      127.13835490533624      5.0635815537999997
   349   2      2.8448490025734325      15.514691983111359      5.0635815537999997
   350   4      2.8448490028000721      83.380471279434119      5.2105475048000001
   351   2      2.8448490028000721      83.380471279434119               2.9496935
   352   2      2.8448490028000721      83.380471279434119      7.0523489108000001
   353   1      2.9035056825361365      107.48836695040447      3.0874183849999999
   354   1      2.9035056825361365      107.48836695040447      7.1900737958000001
   355   2       2.903505682762288      39.622587653079187      5.0635815537999997
   356   4      2.9393028707751756      79.798316518489315      13.808564961699998
   357   2      2.9393028707751756      79.798316518489315      11.293897032299999