(written by ASE)

16667 atoms
4 atom types

0.0      135.73155859364851  xlo xhi
0.0      135.73155859364851  ylo yhi
0.0      63.177851719700001  zlo zhi

Masses

     1       137.3269999646734 # Ba
     2      15.998999995884349 # O
     3      207.19999994669897 # Pb
     4      47.866999987686484 # Ti

Atoms # atomic

     1   2    4.36512125796477e-06      130.02697628570181           13.4298776893
     2   2  1.2115269604197311e-05      118.74327884914173           13.4298776893
     3   2  2.7615565934140062e-05      96.175883976020685           13.4298776893
     4   2  4.4095957036632117e-05      73.483021923567549           13.4298776893
     5   2  5.1846105382987633e-05      62.199324487007047           13.4298776893
     6   2  5.9596253608445669e-05      50.915627050446595           13.4298776893
     7   2  7.6076644349270359e-05      28.222764997993146           13.4298776893
     8   2  8.3826792815695723e-05      16.939067561432694           13.4298776893
     9   2  9.1576941078976796e-05      5.6553701248724719           13.4298776893
    10   2  0.00013130777682038552      84.842974356386378           13.4298776893
    11   2  0.00025923052691381667      39.533505247738361           13.4298776893
    12   2   0.0018359039428038661        107.402820189503           13.4298776893
    13   1     0.02932833989695998      34.930053215984287      3.0874183849999999
    14   1     0.02932833989695998      34.930053215984287      7.1900737958000001
    15   2    0.029328340446926601      102.79583251279239      5.0635815537999997
    16   2    0.087985020377071663      36.924380352309285      5.0635815537999997
    17   4    0.087985020927037971      104.79015964911738      5.2105475048000001
    18   2    0.087985020927037971      104.79015964911738               2.9496935
    19   2    0.087985020927037971      104.79015964911738      7.0523489108000001
    20   1     0.14664170082487504      38.918707487534846      3.0874183849999999
    21   1     0.14664170082487504      38.918707487534846      7.1900737958000001
    22   2     0.14664170137484156      106.78448678434319      5.0635815537999997
    23   2     0.20529838130522785      40.913034623859851      5.0635815537999997
    24   4     0.20529838185519447      108.77881392066794      5.2105475048000001
    25   2     0.20529838185519447      108.77881392066794               2.9496935
    26   2     0.20529838185519447      108.77881392066794      7.0523489108000001
    27   1      0.2639550617527901      42.907361759085411      3.0874183849999999
    28   1      0.2639550617527901      42.907361759085411      7.1900737958000001
    29   2     0.26395506230299809      110.77314105589328      5.0635815537999997
    30   3     0.27135469421134484      55.266020989723401           11.8416575997
    31   3     0.27135469421134484      55.266020989723401           16.1275452197
    32   4     0.27153784809330644      66.576761239468851      13.808564961699998
    33   2     0.27153784809330644      66.576761239468851      11.293897032299999
    34   2     0.27153784809330644      66.576761239468851      15.579784652299999
    35   3     0.27172100197550941      77.887501489213335           11.8416575997
    36   3     0.27172100197550941      77.887501489213335           16.1275452197
    37   3      0.2720873097400357      100.50898198870328           11.8416575997
    38   3      0.2720873097400357      100.50898198870328           16.1275452197
    39   4     0.27227046362187657      111.81972223844873      13.808564961699998
    40   2     0.27227046362187657      111.81972223844873      11.293897032299999
    41   2     0.27227046362187657      111.81972223844873      15.579784652299999
    42   3     0.27234217514532938      10.015510950739351           11.8416575997
    43   3     0.27234217514532938      10.015510950739351           16.1275452197
    44   3     0.27245361750420011      123.13046248819275           11.8416575997
    45   3     0.27245361750420011      123.13046248819275           16.1275452197
    46   4     0.27263677138604092       134.4412027379382      13.808564961699998
    47   2     0.27263677138604092       134.4412027379382      11.293897032299999
    48   2     0.27263677138604092       134.4412027379382      15.579784652299999
    49   3     0.27270848290949407      32.636991450229296           11.8416575997
    50   3     0.27270848290949407      32.636991450229296           16.1275452197
    51   4     0.27289163679169681      43.947731699974746      13.808564961699998
    52   2     0.27289163679169681      43.947731699974746      11.293897032299999
    53   2     0.27289163679169681      43.947731699974746      15.579784652299999
    54   4     0.28609519669742306      21.238816067266182      13.808564961699998
    55   2     0.28609519669742306      21.238816067266182      11.293897032299999
    56   2     0.28609519669742306      21.238816067266182      15.579784652299999
    57   4     0.28671636986700211      89.098384122440649      13.808564961699998
    58   2     0.28671636986700211      89.098384122440649      11.293897032299999
    59   2     0.28671636986700211      89.098384122440649      15.579784652299999
    60   2     0.32261174223314315      44.901688895410651      5.0635815537999997
    61   4     0.32261174278310989      112.76746819221827      5.2105475048000001
    62   2     0.32261174278310989      112.76746819221827               2.9496935
    63   2     0.32261174278310989      112.76746819221827      7.0523489108000001
    64   1     0.38126842268070538      46.896016030636211      3.0874183849999999
    65   1     0.38126842268070538      46.896016030636211      7.1900737958000001
    66   2     0.38126842323091348      114.76179532744383      5.0635815537999997
    67   2     0.43992510316105854      48.890343166961223      5.0635815537999997
    68   4     0.43992510371102483      116.75612246376909      5.2105475048000001
    69   2     0.43992510371102483      116.75612246376909               2.9496935
    70   2     0.43992510371102483      116.75612246376909      7.0523489108000001
    71   1     0.49858178360862077      50.884670302186777      3.0874183849999999
    72   1     0.49858178360862077      50.884670302186777      7.1900737958000001
    73   2     0.49858178415882798      118.75044959899463      5.0635815537999997
    74   2      0.5572384640889736      52.878997438511902      5.0635815537999997
    75   4     0.55723846463894067      120.74477673531966      5.2105475048000001
    76   2     0.55723846463894067      120.74477673531966               2.9496935
    77   2     0.55723846463894067      120.74477673531966      7.0523489108000001
    78   2     0.60391040062965207       48.27997015447248           13.4298776893
    79   2     0.60409355451149327      59.590710404217937           13.4298776893
    80   2     0.60445986227577797      82.212190903707878           13.4298776893
    81   2     0.60464301615810201      93.522931153452859           13.4298776893
    82   2     0.60482617004018402      104.83367140319781           13.4298776893
    83   2     0.60500932392226636      116.14441165294278           13.4298776893
    84   2     0.60508103544571901      14.340200365233883           13.4298776893
    85   2     0.60519247780422847      127.45515190268729           13.4298776893
    86   2     0.60526418932792181      25.650940614978854           13.4298776893
    87   2     0.60544734320964244      36.961680864723824           13.4298776893
    88   1      0.6158951445365356      54.873324573737335      3.0874183849999999
    89   1      0.6158951445365356      54.873324573737335      7.1900737958000001
    90   2     0.61589514508674337      122.73910387054519      5.0635815537999997
    91   2     0.61674765277145482      2.9495740222746671           13.4298776893
    92   2     0.61784657606443083      70.814015520744292           13.4298776893
    93   2     0.67455182501688882      56.867651710062525      5.0635815537999997
    94   4     0.67455182556685556      124.73343100687046      5.2105475048000001
    95   2     0.67455182556685556      124.73343100687046               2.9496935
    96   2     0.67455182556685556      124.73343100687046      7.0523489108000001
    97   1     0.73320850546493321      58.861978845287901      3.0874183849999999
    98   1     0.73320850546493321      58.861978845287901      7.1900737958000001
    99   2     0.73320850601465892      126.72775814209614      5.0635815537999997
   100   2     0.79186518594504507      60.856305981612913      5.0635815537999997
   101   4     0.79186518649477144      128.72208527842128      5.2105475048000001
   102   2     0.79186518649477144      128.72208527842128               2.9496935
   103   2     0.79186518649477144      128.72208527842128      7.0523489108000001
   104   1     0.85052186639284821      62.850633116838459      3.0874183849999999
   105   1     0.85052186639284821      62.850633116838459      7.1900737958000001
   106   2     0.85052186694257426      130.71641241364674      5.0635815537999997
   107   2     0.90917854687296018      64.844960253163464      5.0635815537999997
   108   4     0.90917854742292703      132.71073954997158      5.2105475048000001
   109   2     0.90917854742292703      132.71073954997158               2.9496935
   110   2     0.90917854742292703      132.71073954997158      7.0523489108000001
   111   3     0.93683241481212387      63.915399818712466           11.8416575997
   112   3     0.93683241481212387      63.915399818712466           16.1275452197
   113   4     0.93701556869396507      75.226140068456473      13.808564961699998
   114   2     0.93701556869396507      75.226140068456473      11.293897032299999
   115   2     0.93701556869396507      75.226140068456473      15.579784652299999
   116   3       0.937198722576288      86.536880318201924           11.8416575997
   117   3       0.937198722576288      86.536880318201924           16.1275452197
   118   4     0.93738187645837046       97.84762056794689      13.808564961699998
   119   2     0.93738187645837046       97.84762056794689      11.293897032299999
   120   2     0.93738187645837046       97.84762056794689      15.579784652299999
   121   3     0.93756503034057381      109.15836081769187           11.8416575997
   122   3     0.93756503034057381      109.15836081769187           16.1275452197
   123   4     0.93763674186378532      7.3541495299834461      13.808564961699998
   124   2     0.93763674186378532      7.3541495299834461      11.293897032299999
   125   2     0.93763674186378532      7.3541495299834461      15.579784652299999
   126   3     0.93781989574598801      18.664889779727453           11.8416575997
   127   3     0.93781989574598801      18.664889779727453           16.1275452197
   128   3     0.93793133810497886      131.77984131718182           11.8416575997
   129   3     0.93793133810497886      131.77984131718182           16.1275452197
   130   4     0.93800304962794978      29.975630029472907      13.808564961699998
   131   2     0.93800304962794978      29.975630029472907      11.293897032299999
   132   2     0.93800304962794978      29.975630029472907      15.579784652299999
   133   3     0.93818620351039361       41.28637027921787           11.8416575997
   134   3     0.93818620351039361       41.28637027921787           16.1275452197
   135   4     0.95021912860053526      52.517224435748723      13.808564961699998
   136   2     0.95021912860053526      52.517224435748723      11.293897032299999
   137   2     0.95021912860053526      52.517224435748723      15.579784652299999
   138   4     0.95084030177011392      120.37679249092321      13.808564961699998
   139   2     0.95084030177011392      120.37679249092321      11.293897032299999
   140   2     0.95084030177011392      120.37679249092321      15.579784652299999
   141   1     0.96783522732076377      66.839287388389039      3.0874183849999999
   142   1     0.96783522732076377      66.839287388389039      7.1900737958000001
   143   2     0.96783522787048915      134.70506668519738      5.0635815537999997
   144   2      1.0264919078008756      68.833614524714037      5.0635815537999997
   145   4      1.0264919083506008     0.96783522787362342      5.2105475048000001
   146   2      1.0264919083506008     0.96783522787362342               2.9496935
   147   2      1.0264919083506008     0.96783522787362342      7.0523489108000001
   148   1      1.0851485882486791      70.827941659939597      3.0874183849999999
   149   1      1.0851485882486791      70.827941659939597      7.1900737958000001
   150   2      1.0851485887984043      2.9621623630995417      5.0635815537999997
   151   2      1.1438052687287907      72.822268796264609      5.0635815537999997
   152   4      1.1438052692785161      4.9564894994241868      5.2105475048000001
   153   2      1.1438052692785161      4.9564894994241868               2.9496935
   154   2      1.1438052692785161      4.9564894994241868      7.0523489108000001
   155   1      1.2024619491765938      74.816595931490397      3.0874183849999999
   156   1      1.2024619491765938      74.816595931490397      7.1900737958000001
   157   2      1.2024619497265603      6.9508166346499847      5.0635815537999997
   158   2       1.261118629656947      76.810923067815395      5.0635815537999997
   159   4       1.261118630206431      8.9451437709749904      5.2105475048000001
   160   2       1.261118630206431      8.9451437709749904               2.9496935
   161   2       1.261118630206431      8.9451437709749904      7.0523489108000001
   162   2      1.2693881212304312      56.929348983461551           13.4298776893
   163   2      1.2695712751122725      68.240089233206035           13.4298776893
   164   2      1.2697544289945957      79.550829482951002           13.4298776893
   165   2      1.2699375828764377      90.861569732695983           13.4298776893
   166   2      1.2703038906406017      113.48305023218592           13.4298776893
   167   2      1.2703756021642953      11.678838944477015           13.4298776893
   168   2      1.2704870445231664      124.79379048193088           13.4298776893
   169   2      1.2705587560463778      22.989579194221985           13.4298776893
   170   2      1.2706701984051274     0.37297213802734297           13.4298776893
   171   2       1.270925063810542      45.611059693712413           13.4298776893
   172   2      1.2819705079665784      102.09242388922685           13.4298776893
   173   2      1.2825916811366398      34.220433350752927           13.4298776893
   174   1      1.3197753101045098       78.80525020304097      3.0874183849999999
   175   1      1.3197753101045098       78.80525020304097      7.1900737958000001
   176   2      1.3197753106544756      10.939470906200548      5.0635815537999997
   177   2      1.3784319905848623      80.799577339365968      5.0635815537999997
   178   4      1.3784319911343463      12.933798042525556      5.2105475048000001
   179   2      1.3784319911343463      12.933798042525556               2.9496935
   180   2      1.3784319911343463      12.933798042525556      7.0523489108000001
   181   1      1.4370886710324244      82.793904474591528      3.0874183849999999
   182   1      1.4370886710324244      82.793904474591528      7.1900737958000001
   183   2      1.4370886715823907      14.928125177751232      5.0635815537999997
   184   2      1.4957453515127774      84.788231610916768      5.0635815537999997
   185   4      1.4957453520622617      16.922452314076121      5.2105475048000001
   186   2      1.4957453520622617      16.922452314076121               2.9496935
   187   2      1.4957453520622617      16.922452314076121      7.0523489108000001
   188   1      1.5544020319603398      86.782558746142087      3.0874183849999999
   189   1      1.5544020319603398      86.782558746142087      7.1900737958000001
   190   2      1.5544020325103063      18.916779449301796      5.0635815537999997
   191   3       1.601943827648618       49.94329814821014           11.8416575997
   192   3       1.601943827648618       49.94329814821014           16.1275452197
   193   4      1.6021269815305799      61.254038397955597      13.808564961699998
   194   2      1.6021269815305799      61.254038397955597      11.293897032299999
   195   2      1.6021269815305799      61.254038397955597      15.579784652299999
   196   3      1.6023101354129026      72.564778647700564           11.8416575997
   197   3      1.6023101354129026      72.564778647700564           16.1275452197
   198   3      1.6026764431770681      95.186259147190512           11.8416575997
   199   3      1.6026764431770681      95.186259147190512           16.1275452197
   200   4      1.6028595970590296      106.49699939693548      13.808564961699998
   201   2      1.6028595970590296      106.49699939693548      11.293897032299999
   202   2      1.6028595970590296      106.49699939693548      15.579784652299999
   203   3      1.6029313085826027      4.6927881092265764           11.8416575997
   204   3      1.6029313085826027      4.6927881092265764           16.1275452197
   205   3      1.6030427509412324      117.80773964667996           11.8416575997
   206   3      1.6030427509412324      117.80773964667996           16.1275452197
   207   4      1.6032259048233151      129.11847989642496      13.808564961699998
   208   2      1.6032259048233151      129.11847989642496      11.293897032299999
   209   2      1.6032259048233151      129.11847989642496      15.579784652299999
   210   3      1.6032976163468877      27.314268608716517           11.8416575997
   211   3      1.6032976163468877      27.314268608716517           16.1275452197
   212   4      1.6034807702288496      38.625008858461491      13.808564961699998
   213   2      1.6034807702288496      38.625008858461491      11.293897032299999
   214   2      1.6034807702288496      38.625008858461491      15.579784652299999
   215   2      1.6130587124406925      88.776885882467326      5.0635815537999997
   216   4      1.6130587129906591      20.911106585626683      5.2105475048000001
   217   2      1.6130587129906591      20.911106585626683               2.9496935
   218   2      1.6130587129906591      20.911106585626683      7.0523489108000001
   219   4      1.6143430605026829      83.795632804231062      13.808564961699998
   220   2      1.6143430605026829      83.795632804231062      11.293897032299999
   221   2      1.6143430605026829      83.795632804231062      15.579784652299999
   222   4      1.6149642336727441       15.92364226575709      13.808564961699998
   223   2      1.6149642336727441       15.92364226575709      11.293897032299999
   224   2      1.6149642336727441       15.92364226575709      15.579784652299999
   225   1      1.6717153928882544      90.771213017692887      3.0874183849999999
   226   1      1.6717153928882544      90.771213017692887      7.1900737958000001
   227   2      1.6717153934382214      22.905433720852482      5.0635815537999997
   228   2      1.7303720733686077      92.765540154017884      5.0635815537999997
   229   4      1.7303720739185742      24.899760857177245      5.2105475048000001
   230   2      1.7303720739185742      24.899760857177245               2.9496935
   231   2      1.7303720739185742      24.899760857177245      7.0523489108000001
   232   1      1.7890287538161704      94.759867289243459      3.0874183849999999
   233   1      1.7890287538161704      94.759867289243459      7.1900737958000001
   234   2      1.7890287543663776      26.894087992402802      5.0635815537999997
   235   2       1.847685434296523      96.754194425568699      5.0635815537999997
   236   4      1.8476854348464895      28.888415128727807      5.2105475048000001
   237   2      1.8476854348464895      28.888415128727807               2.9496935
   238   2      1.8476854348464895      28.888415128727807      7.0523489108000001
   239   1      1.9063421147445674      98.748521560793534      3.0874183849999999
   240   1      1.9063421147445674      98.748521560793534      7.1900737958000001
   241   2       1.906342115294293      30.882742263953606      5.0635815537999997
   242   2      1.9346826879487664      54.267987562704192           13.4298776893
   243   2      1.9350489957129311       76.88946806219414           13.4298776893
   244   2       1.935232149595375      88.200208311939107           13.4298776893
   245   2      1.9354153034773365      99.510948561684074           13.4298776893
   246   2      1.9355984573596596      110.82168881142952           13.4298776893
   247   2      1.9356701688826303      9.0174775237206273           13.4298776893
   248   2      1.9357816112415016      122.13242906117451           13.4298776893
   249   2      1.9358533227651948        20.3282177734656           13.4298776893
   250   2       1.936036476646916      31.638958023210087           13.4298776893
   251   2      1.9362196305293597      42.949698272955544           13.4298776893
   252   2      1.9460944398696909      133.37083225770931           13.4298776893
   253   2      1.9467156130392698      65.498841719235458           13.4298776893
   254   2      1.9649987952246792      100.74284869711877      5.0635815537999997
   255   4      1.9649987957744044      32.877069400278124      5.2105475048000001
   256   2      1.9649987957744044      32.877069400278124               2.9496935
   257   2      1.9649987957744044      32.877069400278124      7.0523489108000001
   258   1      2.0236554756724829      102.73717583234433      3.0874183849999999
   259   1      2.0236554756724829      102.73717583234433      7.1900737958000001
   260   2      2.0236554762222081      34.871396535503692      5.0635815537999997
   261   2      2.0823121561525948      104.73150296866959      5.0635815537999997
   262   4      2.0823121567023199      36.865723671829173      5.2105475048000001
   263   2      2.0823121567023199      36.865723671829173               2.9496935
   264   2      2.0823121567023199      36.865723671829173      7.0523489108000001
   265   1      2.1409688366003978      106.72583010389489      3.0874183849999999
   266   1      2.1409688366003978      106.72583010389489      7.1900737958000001
   267   2       2.140968837150123      38.860050807054733      5.0635815537999997
   268   2      2.1996255170805097      108.72015724022015      5.0635815537999997
   269   4      2.1996255176302348      40.854377943379731      5.2105475048000001
   270   2      2.1996255176302348      40.854377943379731               2.9496935
   271   2      2.1996255176302348      40.854377943379731      7.0523489108000001
   272   1      2.2582821975283132      110.71448437544571      3.0874183849999999
   273   1      2.2582821975283132      110.71448437544571      7.1900737958000001
   274   2      2.2582821980782799      42.848705078604816      5.0635815537999997
   275   3      2.2674215482492763      58.592676977198721           11.8416575997
   276   3      2.2674215482492763      58.592676977198721           16.1275452197
   277   4      2.2676047021311181      69.903417226943702      13.808564961699998
   278   2      2.2676047021311181      69.903417226943702      11.293897032299999
   279   2      2.2676047021311181      69.903417226943702      15.579784652299999
   280   3      2.2677878560135616      81.214157476688655           11.8416575997
   281   3      2.2677878560135616      81.214157476688655           16.1275452197
   282   4      2.2679710098955237      92.524897726433636      13.808564961699998
   283   2      2.2679710098955237      92.524897726433636      11.293897032299999
   284   2      2.2679710098955237      92.524897726433636      15.579784652299999
   285   3      2.2681541637779676       103.8356379761786           11.8416575997
   286   3      2.2681541637779676       103.8356379761786           16.1275452197
   287   3      2.2684090291835024      13.342166938214678           11.8416575997
   288   3      2.2684090291835024      13.342166938214678           16.1275452197
   289   3      2.2685204715420113      126.45711847566807           11.8416575997
   290   3      2.2685204715420113      126.45711847566807           16.1275452197
   291   4      2.2685921830652234      24.652907187959652      13.808564961699998
   292   2      2.2685921830652234      24.652907187959652      11.293897032299999
   293   2      2.2685921830652234      24.652907187959652      15.579784652299999
   294   4      2.2687036254239725      2.0363001317650058      13.808564961699998
   295   2      2.2687036254239725      2.0363001317650058      11.293897032299999
   296   2      2.2687036254239725      2.0363001317650058      15.579784652299999
   297   3      2.2687753369475465      35.963647437704616           11.8416575997
   298   3      2.2687753369475465      35.963647437704616           16.1275452197
   299   4      2.2784669924053129      115.07404117271376      13.808564961699998
   300   2      2.2784669924053129      115.07404117271376      11.293897032299999
   301   2      2.2784669924053129      115.07404117271376      15.579784652299999
   302   4      2.2795659156982881      47.206924077535049      13.808564961699998
   303   2      2.2795659156982881      47.206924077535049      11.293897032299999
   304   2      2.2795659156982881      47.206924077535049      15.579784652299999
   305   2       2.316938878008425      112.70881151177072      5.0635815537999997
   306   4      2.3169388785581506      44.843032214930311      5.2105475048000001
   307   2      2.3169388785581506      44.843032214930311               2.9496935
   308   2      2.3169388785581506      44.843032214930311      7.0523489108000001
   309   1      2.3755955584562285      114.70313864699602      3.0874183849999999
   310   1      2.3755955584562285      114.70313864699602      7.1900737958000001
   311   2      2.3755955590061948      46.837359350155616      5.0635815537999997
   312   2      2.4342522389365819      116.69746578332153      5.0635815537999997
   313   4      2.4342522394860655      48.831686486481111      5.2105475048000001
   314   2      2.4342522394860655      48.831686486481111               2.9496935
   315   2      2.4342522394860655      48.831686486481111      7.0523489108000001
   316   1      2.4929089193841438      118.69179291854707      3.0874183849999999
   317   1      2.4929089193841438      118.69179291854707      7.1900737958000001
   318   2      2.4929089199341097      50.826013621706181      5.0635815537999997
   319   2      2.5515655998644964      120.68612005487161      5.0635815537999997
   320   4      2.5515656004139808      52.820340758031676      5.2105475048000001
   321   2      2.5515656004139808      52.820340758031676               2.9496935
   322   2      2.5515656004139808      52.820340758031676      7.0523489108000001
   323   2      2.5999772546675839       51.60662614194829           13.4298776893
   324   2      2.6001604085494252      62.917366391693257           13.4298776893
   325   2      2.6003435624317479      74.228106641437734           13.4298776893
   326   2      2.6005267163138308      85.538846891183198           13.4298776893
   327   2      2.6008930240779953      108.16032739067313           13.4298776893
   328   2      2.6009647356015688       6.356116102964239           13.4298776893
   329   2      2.6010761779601981      119.47106764041763           13.4298776893
   330   2      2.6011478894832893      17.666856352708727           13.4298776893
   331   2       2.601259331842281      130.78180789016261           13.4298776893
   332   2      2.6015141972478153      40.288336852199151           13.4298776893
   333   1      2.6102222803120587      122.68044719009751      3.0874183849999999
   334   1      2.6102222803120587      122.68044719009751      7.1900737958000001
   335   2       2.610222280862025      54.814667893256981      5.0635815537999997
   336   2      2.6108395449414172      96.777250087717945           13.4298776893
   337   2      2.6119384682343925      28.910132992539129           13.4298776893
   338   2      2.6688789607924117      124.67477432642265      5.0635815537999997
   339   4      2.6688789613418957      56.808995029582235      5.2105475048000001
   340   2      2.6688789613418957      56.808995029582235               2.9496935
   341   2      2.6688789613418957      56.808995029582235      7.0523489108000001
   342   1      2.7275356412399741       126.6691014616482      3.0874183849999999
   343   1      2.7275356412399741       126.6691014616482      7.1900737958000001
   344   2      2.7275356417899403      58.803322164807788      5.0635815537999997
   345   2       2.786192321720327      128.66342859797297      5.0635815537999997
   346   4      2.7861923222702933      60.797649301132559      5.2105475048000001
   347   2      2.7861923222702933      60.797649301132559               2.9496935
   348   2      2.7861923222702933      60.797649301132559      7.0523489108000001
   349   1      2.8448490021678889      130.65775573319894      3.0874183849999999
   350   1      2.8448490021678889      130.65775573319894      7.1900737958000001
   351   2      2.8448490027180968      62.791976436358112      5.0635815537999997
   352   2      2.9035056826482424      132.65208286952401      5.0635815537999997
   353   4      2.9035056831982091      64.786303572683138      5.2105475048000001
   354   2      2.9035056831982091      64.786303572683138               2.9496935
   355   2      2.9035056831982091      64.786303572683138      7.0523489108000001
   356   4      2.9327161149678527      55.931315556442335      13.808564961699998
   357   2      2.9327161149678527      55.931315556442335      11.293897032299999