(written by ASE)

16667 atoms
4 atom types

0.0      135.73155859364851  xlo xhi
0.0      135.73155859364851  ylo yhi
0.0      63.177851719700001  zlo zhi

Masses

     1       137.3269999646734 # Ba
     2      15.998999995884349 # O
     3      207.19999994669897 # Pb
     4      47.866999987686484 # Ti

Atoms # atomic

     1   2  2.2194161100823262e-06      118.79356696103008           13.4298776893
     2   2  1.2986032533755472e-05      73.487139371587659           13.4298776893
     3   2  2.8191481289283362e-05        130.036287110556           13.4298776893
     4   2  3.2630314053957859e-05      96.160303845318396           13.4298776893
     5   2  4.3396930167374476e-05      50.853876255876344           13.4298776893
     6   2  4.7835762807639101e-05       16.97789299063859           13.4298776893
     7   2  5.8602379297540878e-05      107.40302399484446           13.4298776893
     8   2  0.00012386300696813716      28.260514498184801           13.4298776893
     9   2  0.00013906845584647174      84.809662237153404           13.4298776893
    10   2  0.00015427390466475174      5.6272513824736059           13.4298776893
    11   2  0.00016947935354384453      62.176399121442209           13.4298776893
    12   2  0.00099756230513641832      39.538582493973443           13.4298776893
    13   1    0.029328340394003911      79.919727132602389      3.0874183849999999
    14   1    0.029328340394003911      79.919727132602389      7.1900737958000001
    15   2    0.029328340620282608       12.05394783527626      5.0635815537999997
    16   2    0.087985020356579458      36.161843506246974      5.0635815537999997
    17   4    0.087985020582980078      104.02762280256974      5.2105475048000001
    18   2    0.087985020582980078      104.02762280256974               2.9496935
    19   2    0.087985020582980078      104.02762280256974      7.0523489108000001
    20   1     0.14664170132155618      128.13551847399339      3.0874183849999999
    21   1     0.14664170132155618      128.13551847399339      7.1900737958000001
    22   2     0.14664170154819647      60.269739176667379      5.0635815537999997
    23   2     0.20529838128473393      84.377634847637736      5.0635815537999997
    24   4     0.20529838151089333      16.511855550312326      5.2105475048000001
    25   2     0.20529838151089333      16.511855550312326               2.9496935
    26   2     0.20529838151089333      16.511855550312326      7.0523489108000001
    27   1     0.26395506224947385       40.61975122173596      3.0874183849999999
    28   1     0.26395506224947385       40.61975122173596      7.1900737958000001
    29   2     0.26395506247610967      108.48553051805861      5.0635815537999997
    30   3     0.27794301818893208      80.463617358305981           11.8416575997
    31   3     0.27794301818893208      80.463617358305981           16.1275452197
    32   4     0.27809951150994999      69.152877108159799      13.808564961699998
    33   2     0.27809951150994999      69.152877108159799      11.293897032299999
    34   2     0.27809951150994999      69.152877108159799      15.579784652299999
    35   3     0.27825600483108454      57.842136858015074           11.8416575997
    36   3     0.27825600483108454      57.842136858015074           16.1275452197
    37   3     0.27839729270310465      125.71380746255002           11.8416575997
    38   3     0.27839729270310465      125.71380746255002           16.1275452197
    39   4     0.27841249815137525      46.531396607870342      13.808564961699998
    40   2     0.27841249815137525      46.531396607870342      11.293897032299999
    41   2     0.27841249815137525      46.531396607870342      15.579784652299999
    42   4     0.27855378602386943      114.40306721240482      13.808564961699998
    43   2     0.27855378602386943      114.40306721240482      11.293897032299999
    44   2     0.27855378602386943      114.40306721240482      15.579784652299999
    45   3     0.27856899147251141      35.220656357725133           11.8416575997
    46   3     0.27856899147251141      35.220656357725133           16.1275452197
    47   3     0.27871027934500409      103.09232696225961           11.8416575997
    48   3     0.27871027934500409      103.09232696225961           16.1275452197
    49   4     0.27872548479352449      23.909916107579441      13.808564961699998
    50   2     0.27872548479352449      23.909916107579441      11.293897032299999
    51   2     0.27872548479352449      23.909916107579441      15.579784652299999
    52   4     0.27886677266577842      91.781586712113921      13.808564961699998
    53   2     0.27886677266577842      91.781586712113921      11.293897032299999
    54   2     0.27886677266577842      91.781586712113921      15.579784652299999
    55   3     0.27888197811465809      12.599175857434231           11.8416575997
    56   3     0.27888197811465809      12.599175857434231           16.1275452197
    57   4     0.27903847143518995      1.2884356072885377      13.808564961699998
    58   2     0.27903847143518995      1.2884356072885377      11.293897032299999
    59   2     0.27903847143518995      1.2884356072885377      15.579784652299999
    60   2     0.32261174221265232      132.59342618902895      5.0635815537999997
    61   4     0.32261174243881124      64.727646891703486      5.2105475048000001
    62   2     0.32261174243881124      64.727646891703486               2.9496935
    63   2     0.32261174243881124      64.727646891703486      7.0523489108000001
    64   1     0.38126842317786708      88.835542563126594      3.0874183849999999
    65   1     0.38126842317786708      88.835542563126594      7.1900737958000001
    66   2     0.38126842340402883      20.969763265801248      5.0635815537999997
    67   2     0.43992510314056865      45.077658936771485      5.0635815537999997
    68   4     0.43992510336671942       112.9434382330948      5.2105475048000001
    69   2     0.43992510336671942       112.9434382330948               2.9496935
    70   2     0.43992510336671942       112.9434382330948      7.0523489108000001
    71   1     0.49858178410578458      1.3197753108691823      3.0874183849999999
    72   1     0.49858178410578458      1.3197753108691823      7.1900737958000001
    73   2     0.49858178433194356      69.185554607192302      5.0635815537999997
    74   2     0.55723846406848099      93.293450278162652      5.0635815537999997
    75   4      0.5572384642946363      25.427670980837316      5.2105475048000001
    76   2      0.5572384642946363      25.427670980837316               2.9496935
    77   2      0.5572384642946363      25.427670980837316      7.0523489108000001
    78   2     0.61051519143603783      87.449667409670013           13.4298776893
    79   2     0.61067168475716904      76.138927159524329           13.4298776893
    80   2     0.61082817807794598      64.828186909379582           13.4298776893
    81   2     0.61096946595019386      132.69985751391408           13.4298776893
    82   2     0.61098467139859813      53.517446659233904           13.4298776893
    83   2     0.61112595927109814      121.38911726376837           13.4298776893
    84   2     0.61114116471985569      42.206706409088689           13.4298776893
    85   2     0.61128245259186642      110.07837701362365           13.4298776893
    86   2     0.61129765804074854      30.895966158942993           13.4298776893
    87   2     0.61143894591301062      98.767636763477938           13.4298776893
    88   2     0.61145415136151937      19.585225908798265           13.4298776893
    89   2      0.6116106446826548      8.2744856586525728           13.4298776893
    90   1     0.61589514503370091      49.535566652260293      3.0874183849999999
    91   1     0.61589514503370091      49.535566652260293      7.1900737958000001
    92   2     0.61589514526009437      117.40134594858354      5.0635815537999997
    93   2     0.67455182499639443      5.7776830259052483      5.0635815537999997
    94   4     0.67455182522255253       73.64346232222843      5.2105475048000001
    95   2     0.67455182522255253       73.64346232222843               2.9496935
    96   2     0.67455182522255253       73.64346232222843      7.0523489108000001
    97   1      0.7332085059616118      97.751357993651538      3.0874183849999999
    98   1      0.7332085059616118      97.751357993651538      7.1900737958000001
    99   2     0.73320850618777356      29.885578696326121      5.0635815537999997
   100   2     0.79186518592430655      53.993474367296471      5.0635815537999997
   101   4     0.79186518615071166      121.85925366362008      5.2105475048000001
   102   2     0.79186518615071166      121.85925366362008               2.9496935
   103   2     0.79186518615071166      121.85925366362008      7.0523489108000001
   104   1     0.85052186688953013      10.235590741394113      3.0874183849999999
   105   1     0.85052186688953013      10.235590741394113      7.1900737958000001
   106   2        0.85052186711569      78.101370037717473      5.0635815537999997
   107   2     0.90917854685222332      102.20926570868782      5.0635815537999997
   108   4     0.90917854707886714      34.343486411362065      5.2105475048000001
   109   2     0.90917854707886714      34.343486411362065               2.9496935
   110   2     0.90917854707886714      34.343486411362065      7.0523489108000001
   111   4      0.9432438580042749      83.124977210887877      13.808564961699998
   112   2      0.9432438580042749      83.124977210887877      11.293897032299999
   113   2      0.9432438580042749      83.124977210887877      15.579784652299999
   114   3     0.94340035132541189      71.814236960742662           11.8416575997
   115   3     0.94340035132541189      71.814236960742662           16.1275452197
   116   4     0.94355684464594314      60.503496710597929      13.808564961699998
   117   2     0.94355684464594314      60.503496710597929      11.293897032299999
   118   2     0.94355684464594314      60.503496710597929      15.579784652299999
   119   4     0.94369813251820034      128.37516731513242      13.808564961699998
   120   2     0.94369813251820034      128.37516731513242      11.293897032299999
   121   2     0.94369813251820034      128.37516731513242      15.579784652299999
   122   3     0.94371333796707424      49.192756460452728           11.8416575997
   123   3     0.94371333796707424      49.192756460452728           16.1275452197
   124   3     0.94385462583956781      117.06442706498719           11.8416575997
   125   3     0.94385462583956781      117.06442706498719           16.1275452197
   126   4     0.94386983128785029      37.882016210307029      13.808564961699998
   127   2     0.94386983128785029      37.882016210307029      11.293897032299999
   128   2     0.94386983128785029      37.882016210307029      15.579784652299999
   129   4     0.94401111916011271      105.75368681484198      13.808564961699998
   130   2     0.94401111916011271      105.75368681484198      11.293897032299999
   131   2     0.94401111916011271      105.75368681484198      15.579784652299999
   132   3     0.94402632460922487      26.571275960161817           11.8416575997
   133   3     0.94402632460922487      26.571275960161817           16.1275452197
   134   3     0.94416761248124026      94.442946564696769           11.8416575997
   135   3     0.94416761248124026      94.442946564696769           16.1275452197
   136   4     0.94418281792951664       15.26053571001709      13.808564961699998
   137   2     0.94418281792951664       15.26053571001709      11.293897032299999
   138   2     0.94418281792951664       15.26053571001709      15.579784652299999
   139   3     0.94433931125089221      3.9497954598718792           11.8416575997
   140   3     0.94433931125089221      3.9497954598718792           16.1275452197
   141   1      0.9678352278174468      58.451382082785464      3.0874183849999999
   142   1      0.9678352278174468      58.451382082785464      7.1900737958000001
   143   2     0.96783522804408728      126.31716137910823      5.0635815537999997
   144   2      1.0264919077801409      14.693498456430179      5.0635815537999997
   145   4      1.0264919080067763      82.559277752753175      5.2105475048000001
   146   2      1.0264919080067763      82.559277752753175               2.9496935
   147   2      1.0264919080067763      82.559277752753175      7.0523489108000001
   148   1      1.0851485887453645       106.6671734241764      3.0874183849999999
   149   1      1.0851485887453645       106.6671734241764      7.1900737958000001
   150   2      1.0851485889720043      38.801394126850916      5.0635815537999997
   151   2      1.1438052687082985      62.909289797821408      5.0635815537999997
   152   4      1.1438052689346958      130.77506909414441      5.2105475048000001
   153   2      1.1438052689346958      130.77506909414441               2.9496935
   154   2      1.1438052689346958      130.77506909414441      7.0523489108000001
   155   1      1.2024619496732756      19.151406171919046      3.0874183849999999
   156   1      1.2024619496732756      19.151406171919046      7.1900737958000001
   157   2      1.2024619498999147      87.017185468241934      5.0635815537999997
   158   2      1.2611186296362138      111.12508113921275      5.0635815537999997
   159   4      1.2611186298626131      43.259301841887002      5.2105475048000001
   160   2      1.2611186298626131      43.259301841887002               2.9496935
   161   2      1.2611186298626131      43.259301841887002      7.0523489108000001
   162   2      1.2759725245726345      78.800287012107191           13.4298776893
   163   2      1.2761290178931652      67.489546761961492           13.4298776893
   164   2      1.2762855112141831      56.178806511816269           13.4298776893
   165   2      1.2764267990866736      124.05047711635075           13.4298776893
   166   2      1.2764420045350742      44.868066261671061           13.4298776893
   167   2      1.2765832924073286      112.73973686620555           13.4298776893
   168   2      1.2765984978560869      33.557326011525852           13.4298776893
   169   2      1.2767397857283425      101.42899661606081           13.4298776893
   170   2      1.2767549911769813       22.24658576138064           13.4298776893
   171   2      1.2768962790489902      90.118256365915599           13.4298776893
   172   2      1.2769114844983569       10.93584551123495           13.4298776893
   173   2        1.27706797781865      135.35666385473874           13.4298776893
   174   1      1.3197753106014325      67.367197513310629      3.0874183849999999
   175   1      1.3197753106014325      67.367197513310629      7.1900737958000001
   176   2      1.3197753108278309      135.23297680963316      5.0635815537999997
   177   2      1.3784319905638875      23.609313886955107      5.0635815537999997
   178   4      1.3784319907905287      91.475093183277991      5.2105475048000001
   179   2      1.3784319907905287      91.475093183277991               2.9496935
   180   2      1.3784319907905287      91.475093183277991      7.0523489108000001
   181   1      1.4370886715293447      115.58298885470163      3.0874183849999999
   182   1      1.4370886715293447      115.58298885470163      7.1900737958000001
   183   2      1.4370886717557487      47.717209557375625      5.0635815537999997
   184   2      1.4957453514922836      71.825105228346217      5.0635815537999997
   185   4      1.4957453517184425      3.9593259310208171      5.2105475048000001
   186   2      1.4957453517184425      3.9593259310208171               2.9496935
   187   2      1.4957453517184425      3.9593259310208171      7.0523489108000001
   188   1      1.5544020324575056      28.067221602443858      3.0874183849999999
   189   1      1.5544020324575056      28.067221602443858      7.1900737958000001
   190   2      1.5544020326836641      95.933000898767105      5.0635815537999997
   191   3      1.6085446978197369      85.786337063470739           11.8416575997
   192   3      1.6085446978197369      85.786337063470739           16.1275452197
   193   4      1.6087011911405076      74.475596813325041      13.808564961699998
   194   2      1.6087011911405076      74.475596813325041      11.293897032299999
   195   2      1.6087011911405076      74.475596813325041      15.579784652299999
   196   3       1.608857684461642      63.164856563180315           11.8416575997
   197   3       1.608857684461642      63.164856563180315           16.1275452197
   198   3      1.6089989723338987      131.03652716771478           11.8416575997
   199   3      1.6089989723338987      131.03652716771478           16.1275452197
   200   4      1.6090141777825364      51.854116313034616      13.808564961699998
   201   2      1.6090141777825364      51.854116313034616      11.293897032299999
   202   2      1.6090141777825364      51.854116313034616      15.579784652299999
   203   4      1.6091554656546705      119.72578691756958      13.808564961699998
   204   2      1.6091554656546705      119.72578691756958      11.293897032299999
   205   2      1.6091554656546705      119.72578691756958      15.579784652299999
   206   3      1.6091706711035509      40.543376062889891           11.8416575997
   207   3      1.6091706711035509      40.543376062889891           16.1275452197
   208   3      1.6093119589755676      108.41504666742483           11.8416575997
   209   3      1.6093119589755676      108.41504666742483           16.1275452197
   210   4      1.6093271644244451      29.232635812744196      13.808564961699998
   211   2      1.6093271644244451      29.232635812744196      11.293897032299999
   212   2      1.6093271644244451      29.232635812744196      15.579784652299999
   213   4      1.6094684522965759      97.104306417279147      13.808564961699998
   214   2      1.6094684522965759      97.104306417279147      11.293897032299999
   215   2      1.6094684522965759      97.104306417279147      15.579784652299999
   216   3      1.6094836577452178      17.921895562599467           11.8416575997
   217   3      1.6094836577452178      17.921895562599467           16.1275452197
   218   4      1.6096401510659921      6.6111553124537741      13.808564961699998
   219   2      1.6096401510659921      6.6111553124537741      11.293897032299999
   220   2      1.6096401510659921      6.6111553124537741      15.579784652299999
   221   2      1.6130587124202023      120.04089656973721      5.0635815537999997
   222   4      1.6130587126463543      52.175117272411931      5.2105475048000001
   223   2      1.6130587126463543      52.175117272411931               2.9496935
   224   2      1.6130587126463543      52.175117272411931      7.0523489108000001
   225   1      1.6717153933854239      76.283012943835089      3.0874183849999999
   226   1      1.6717153933854239      76.283012943835089      7.1900737958000001
   227   2      1.6717153936115778      8.4172336465095619      5.0635815537999997
   228   2      1.7303720733481138      32.525129317479802      5.0635815537999997
   229   4      1.7303720735742794      100.39090861380292      5.2105475048000001
   230   2      1.7303720735742794      100.39090861380292               2.9496935
   231   2      1.7303720735742794      100.39090861380292      7.0523489108000001
   232   1      1.7890287543132157      124.49880428522704      3.0874183849999999
   233   1      1.7890287543132157      124.49880428522704      7.1900737958000001
   234   2      1.7890287545394956      56.633024987900548      5.0635815537999997
   235   2      1.8476854342760343      80.740920658871147      5.0635815537999997
   236   4      1.8476854345024298      12.875141361545628      5.2105475048000001
   237   2      1.8476854345024298      12.875141361545628               2.9496935
   238   2      1.8476854345024298      12.875141361545628      7.0523489108000001
   239   1      1.9063421152407678      36.983037032969264      3.0874183849999999
   240   1      1.9063421152407678      36.983037032969264      7.1900737958000001
   241   2      1.9063421154676516      104.84881632929191      5.0635815537999997
   242   2      1.9412733643877396      81.461646864689556           13.4298776893
   243   2      1.9414298577088673      70.150906614543857           13.4298776893
   244   2      1.9415863510293985      58.840166364399138           13.4298776893
   245   2      1.9417276389016558      126.71183696893361           13.4298776893
   246   2      1.9417428443507796       47.52942611425344           13.4298776893
   247   2      1.9418841322229132      115.40109671878839           13.4298776893
   248   2      1.9418993376715492      36.218685864107748           13.4298776893
   249   2      1.9420406255438045       104.0903564686427           13.4298776893
   250   2      1.9420558309926834      24.907945613963019           13.4298776893
   251   2      1.9421971188648164      92.779616218497495           13.4298776893
   252   2      1.9422123243132154      13.597205363817809           13.4298776893
   253   2      1.9423688176339886      2.2864651136730809           13.4298776893
   254   2      1.9649987952039398      128.95671200026214      5.0635815537999997
   255   4      1.9649987954301043      61.090932702936982      5.2105475048000001
   256   2      1.9649987954301043      61.090932702936982               2.9496935
   257   2      1.9649987954301043      61.090932702936982      7.0523489108000001
   258   1      2.0236554761691621      85.198828374359891      3.0874183849999999
   259   1      2.0236554761691621      85.198828374359891      7.1900737958000001
   260   2      2.0236554763953225      17.333049077034612      5.0635815537999997
   261   2       2.082312156131858      41.440944748004796      5.0635815537999997
   262   4      2.0823121563584968      109.30672404432785      5.2105475048000001
   263   2      2.0823121563584968      109.30672404432785               2.9496935
   264   2      2.0823121563584968      109.30672404432785      7.0523489108000001
   265   1      2.1409688370970836        133.414619715751      3.0874183849999999
   266   1      2.1409688370970836        133.414619715751      7.1900737958000001
   267   2      2.1409688373236571      65.548840418426209      5.0635815537999997
   268   2      2.1996255170597703      89.656736089395963      5.0635815537999997
   269   4      2.1996255172864156      21.790956792070556      5.2105475048000001
   270   2      2.1996255172864156      21.790956792070556               2.9496935
   271   2      2.1996255172864156      21.790956792070556      7.0523489108000001
   272   1      2.2582821980249959      45.898852463493718      3.0874183849999999
   273   1      2.2582821980249959      45.898852463493718      7.1900737958000001
   274   2      2.2582821982515142      113.76463175981721      5.0635815537999997
   275   3      2.2740020309562095      77.136956665907888           11.8416575997
   276   3      2.2740020309562095      77.136956665907888           16.1275452197
   277   4      2.2741585242768672      65.826216415762687      13.808564961699998
   278   2      2.2741585242768672      65.826216415762687      11.293897032299999
   279   2      2.2741585242768672      65.826216415762687      15.579784652299999
   280   3       2.274315017598119      54.515476165616995           11.8416575997
   281   3       2.274315017598119      54.515476165616995           16.1275452197
   282   3      2.2744563054703759      122.38714677015196           11.8416575997
   283   3      2.2744563054703759      122.38714677015196           16.1275452197
   284   4      2.2744715109187732       43.20473591547227      13.808564961699998
   285   2      2.2744715109187732       43.20473591547227      11.293897032299999
   286   2      2.2744715109187732       43.20473591547227      15.579784652299999
   287   4      2.2746127987909066      111.07640652000674      13.808564961699998
   288   2      2.2746127987909066      111.07640652000674      11.293897032299999
   289   2      2.2746127987909066      111.07640652000674      15.579784652299999
   290   3      2.2746280042397871      31.893995665327054           11.8416575997
   291   3      2.2746280042397871      31.893995665327054           16.1275452197
   292   3      2.2747692921122815      99.765666269861526           11.8416575997
   293   3      2.2747692921122815      99.765666269861526           16.1275452197
   294   4      2.2747844975603186      20.583255415181846      13.808564961699998
   295   2      2.2747844975603186      20.583255415181846      11.293897032299999
   296   2      2.2747844975603186      20.583255415181846      15.579784652299999
   297   4      2.2749257854328193      88.454926019716311      13.808564961699998
   298   2      2.2749257854328193      88.454926019716311      11.293897032299999
   299   2      2.2749257854328193      88.454926019716311      15.579784652299999
   300   3      2.2749409908816949      9.2725151650361504           11.8416575997
   301   3      2.2749409908816949      9.2725151650361504           16.1275452197
   302   4      2.2750974842025853      133.69333350853898      13.808564961699998
   303   2      2.2750974842025853      133.69333350853898      11.293897032299999
   304   2      2.2750974842025853      133.69333350853898      15.579784652299999
   305   2      2.3169388779876896      2.1409688371385953      5.0635815537999997
   306   4      2.3169388782143314      70.006748133461556      5.2105475048000001
   307   2      2.3169388782143314      70.006748133461556               2.9496935
   308   2      2.3169388782143314      70.006748133461556      7.0523489108000001
   309   1      2.3755955589529147      94.114643804885191      3.0874183849999999
   310   1      2.3755955589529147      94.114643804885191      7.1900737958000001
   311   2       2.375595559179553      26.248864507559187      5.0635815537999997
   312   2      2.4342522389156072      50.356760178529655      5.0635815537999997
   313   4      2.4342522391422476      118.22253947485278      5.2105475048000001
   314   2      2.4342522391422476      118.22253947485278               2.9496935
   315   2      2.4342522391422476      118.22253947485278      7.0523489108000001
   316   1      2.4929089198808247      6.5988765526274165      3.0874183849999999
   317   1      2.4929089198808247      6.5988765526274165      7.1900737958000001
   318   2      2.4929089201074723      74.464655848950287      5.0635815537999997
   319   2      2.5515655998435141      98.572551519921248      5.0635815537999997
   320   4      2.5515656000701634      30.706772222595248      5.2105475048000001
   321   2      2.5515656000701634      30.706772222595248               2.9496935
   322   2      2.5515656000701634      30.706772222595248      7.0523489108000001
   323   2      2.6065742042034379       84.12300671727192           13.4298776893
   324   2      2.6067306975239628      72.812266467126236           13.4298776893
   325   2      2.6068871908451041       61.50152621698151           13.4298776893
   326   2      2.6070284787172313      129.37319682151599           13.4298776893
   327   2      2.6070436841658755      50.190785966835818           13.4298776893
   328   2      2.6071849720381319      118.06245657137077           13.4298776893
   329   2      2.6072001774870128      38.880045716690603           13.4298776893
   330   2      2.6073414653591436      106.75171632122557           13.4298776893
   331   2      2.6073566708077838      27.569305466545394           13.4298776893
   332   2      2.6074979586798044      95.440976071080343           13.4298776893
   333   2      2.6075131641289193      16.258565216400186           13.4298776893
   334   2      2.6076696574499318      4.9478249662544931           13.4298776893
   335   1      2.6102222808089848      54.814667894019372      3.0874183849999999
   336   1      2.6102222808089848      54.814667894019372      7.1900737958000001
   337   2      2.6102222810353868      122.68044719034141      5.0635815537999997
   338   2      2.6688789607719183       11.05678426766336      5.0635815537999997
   339   4      2.6688789609980765      78.922563563986543      5.2105475048000001
   340   2      2.6688789609980765      78.922563563986543               2.9496935
   341   2      2.6688789609980765      78.922563563986543      7.0523489108000001
   342   1      2.7275356417366567      103.03045923541036      3.0874183849999999
   343   1      2.7275356417366567      103.03045923541036      7.1900737958000001
   344   2      2.7275356419632972      35.164679938084113      5.0635815537999997
   345   2       2.786192321699835      59.272575609054591      5.0635815537999997
   346   4      2.7861923219259923      127.13835490537771      5.2105475048000001
   347   2      2.7861923219259923      127.13835490537771               2.9496935
   348   2      2.7861923219259923      127.13835490537771      7.0523489108000001
   349   1      2.8448490026645707      15.514691983152588      3.0874183849999999
   350   1      2.8448490026645707      15.514691983152588      7.1900737958000001
   351   2      2.8448490028912055      83.380471279475358      5.0635815537999997
   352   2      2.9035056826277494      107.48836695044571      5.0635815537999997
   353   4      2.9035056828539045      39.622587653120249      5.2105475048000001
   354   2      2.9035056828539045      39.622587653120249               2.9496935
   355   2      2.9035056828539045      39.622587653120249      7.0523489108000001
   356   4      2.9393028707714315      79.798316518490267      13.808564961699998
   357   2      2.9393028707714315      79.798316518490267      11.293897032299999