(written by ASE)

26866 atoms
4 atom types

0.0      172.32709806257893  xlo xhi
0.0      172.32709806257893  ylo yhi
0.0      63.177851719700001  zlo zhi

Masses

     1       137.3269999646734 # Ba
     2      15.998999995884349 # O
     3      207.19999994669897 # Pb
     4      47.866999987686484 # Ti

Atoms # atomic

     1   4  1.1322851189341754e-05      91.860867092617426      13.808564961699998
     2   2  1.1322851189341754e-05      91.860867092617426      11.293897032299999
     3   2  1.1322851189341754e-05      91.860867092617426      15.579784652299999
     4   2  1.3167158041074354e-05      166.67891414395572           13.4298776893
     5   3  3.7657167615001531e-05      80.564499255371189           11.8416575997
     6   3  3.7657167615001531e-05      80.564499255371189           16.1275452197
     7   2  0.00012862696428838564      5.6397149594350218           13.4298776893
     8   2   0.0021363903796933368       16.91578565345392           13.4298776893
     9   3   0.0028698510004145647      103.08612403150661           11.8416575997
    10   3   0.0028698510004145647      103.08612403150661           16.1275452197
    11   4    0.023100147177068178      57.912069013474401      5.2105475048000001
    12   2    0.023100147177068178      57.912069013474401               2.9496935
    13   2    0.023100147177068178      57.912069013474401      7.0523489108000001
    14   2    0.023100147584543047       144.0756180451327      5.0635815537999997
    15   2    0.045921773246664077      28.226441154837897           13.4298776893
    16   4    0.046655233867378569      114.39677953288999      13.808564961699998
    17   2    0.046655233867378569      114.39677953288999      11.293897032299999
    18   2    0.046655233867378569      114.39677953288999      15.579784652299999
    19   2    0.069300441194285634      87.572658010175431      5.0635815537999997
    20   1    0.069300441602014706      1.4091089792554363      3.0874183849999999
    21   1    0.069300441602014706      1.4091089792554363      7.1900737958000001
    22   2    0.089707156114248607      39.537096656222332           13.4298776893
    23   3    0.090582410856974938      125.69896607508629           11.8416575997
    24   3    0.090582410856974938      125.69896607508629           16.1275452197
    25   4     0.11550073595046025       117.2332470060622      5.2105475048000001
    26   2     0.11550073595046025       117.2332470060622               2.9496935
    27   2     0.11550073595046025       117.2332470060622      7.0523489108000001
    28   2     0.11550073635817708      31.069697975141288      5.0635815537999997
    29   2     0.13349253898121646      50.847752157606621           13.4298776893
    30   4     0.13408420547992012      137.02655949484756      13.808564961699998
    31   2     0.13408420547992012      137.02655949484756      11.293897032299999
    32   2     0.13408420547992012      137.02655949484756      15.579784652299999
    33   2     0.16170102996770508      146.89383600276352      5.0635815537999997
    34   1      0.1617010303752047      60.730286971843228      3.0874183849999999
    35   1      0.1617010303752047      60.730286971843228      7.1900737958000001
    36   2     0.17727792184941216      62.158407658990754           13.4298776893
    37   3     0.17786958834751204      148.33721499623141           11.8416575997
    38   3     0.17786958834751204      148.33721499623141           16.1275452197
    39   4     0.20790132472385139      4.2273269360704351      5.2105475048000001
    40   2     0.20790132472385139      4.2273269360704351               2.9496935
    41   2     0.20790132472385139      4.2273269360704351      7.0523489108000001
    42   2     0.20790132513154316      90.390875967729698      5.0635815537999997
    43   2     0.22106330471638422        73.4690631603752           13.4298776893
    44   4     0.22165497121508024      159.64787049761529      13.808564961699998
    45   2     0.22165497121508024      159.64787049761529      11.293897032299999
    46   2     0.22165497121508024      159.64787049761529      15.579784652299999
    47   2      0.2541016187413202      33.887915932771776      5.0635815537999997
    48   1     0.25410161914898988      120.05146496443042      3.0874183849999999
    49   1     0.25410161914898988      120.05146496443042      7.1900737958000001
    50   2     0.26470689346134696      84.788187620947241           13.4298776893
    51   3     0.26544035408206607      170.95852599899985           11.8416575997
    52   3     0.26544035408206607      170.95852599899985           16.1275452197
    53   4     0.30030191349739027      63.548504928657231      5.2105475048000001
    54   2     0.30030191349739027      63.548504928657231               2.9496935
    55   2     0.30030191349739027      63.548504928657231      7.0523489108000001
    56   2     0.30030191390512195      149.71205396031581      5.0635815537999997
    57   2     0.30849227632893517      96.098843122332127           13.4298776893
    58   4     0.30922573694903022      9.9420834378054312      13.808564961699998
    59   2     0.30922573694903022      9.9420834378054312      11.293897032299999
    60   2     0.30922573694903022      9.9420834378054312      15.579784652299999
    61   2     0.34650220751473249      93.209093925359568      5.0635815537999997
    62   1     0.34650220792254444      7.0455448944389643      3.0874183849999999
    63   1     0.34650220792254444      7.0455448944389643      7.1900737958000001
    64   3     0.35154419857518265      21.239160245663488           11.8416575997
    65   3     0.35154419857518265      21.239160245663488           16.1275452197
    66   2     0.35241945331851554       107.4010296645276           13.4298776893
    67   4     0.39270250227120029      122.86968292124543      5.2105475048000001
    68   2     0.39270250227120029      122.86968292124543               2.9496935
    69   2     0.39270250227120029      122.86968292124543      7.0523489108000001
    70   2     0.39270250267868445       36.70613389032512      5.0635815537999997
    71   4     0.39532958144276831      32.549815747047774      13.808564961699998
    72   2     0.39532958144276831      32.549815747047774      11.293897032299999
    73   2     0.39532958144276831      32.549815747047774      15.579784652299999
    74   2     0.39606304206349163      118.72015412509987           13.4298776893
    75   2      0.4389027962884986      152.53027191794646      5.0635815537999997
    76   1     0.43890279669594073      66.366722887025915      3.0874183849999999
    77   1     0.43890279669594073      66.366722887025915      7.1900737958000001
    78   3     0.43911496430973623      43.860471248432368           11.8416575997
    79   3     0.43911496430973623      43.860471248432368           16.1275452197
    80   2     0.43984842493168247      130.03080962648437           13.4298776893
    81   4     0.48290034717732583       55.17112674981589      13.808564961699998
    82   2     0.48290034717732583       55.17112674981589      11.293897032299999
    83   2     0.48290034717732583       55.17112674981589      15.579784652299999
    84   2     0.48349201367541444      141.34993408705705           13.4298776893
    85   4     0.48510309104461918      9.8637628512539628      5.2105475048000001
    86   2     0.48510309104461918      9.8637628512539628               2.9496935
    87   2     0.48510309104461918      9.8637628512539628      7.0523489108000001
    88   2     0.48510309145210745      96.027311882912912      5.0635815537999997
    89   3     0.52668573004490216      66.481782251200784           11.8416575997
    90   3     0.52668573004490216      66.481782251200784           16.1275452197
    91   2     0.52727739654360994       152.6605895884409           13.4298776893
    92   2     0.53130338506182995      39.524351847955607      5.0635815537999997
    93   1     0.53130338546956846      125.68790087961426      3.0874183849999999
    94   1     0.53130338546956846      125.68790087961426      7.1900737958000001
    95   4     0.57032931879047377      77.800906711772669      13.808564961699998
    96   2     0.57032931879047377      77.800906711772669      11.293897032299999
    97   2     0.57032931879047377      77.800906711772669      15.579784652299999
    98   2     0.57106277941057204      163.97124508982546           13.4298776893
    99   4     0.57750367981789741       69.18494084384146      5.2105475048000001
   100   2     0.57750367981789741       69.18494084384146               2.9496935
   101   2     0.57750367981789741       69.18494084384146      7.0523489108000001
   102   2     0.57750368022557308      155.34848987550009      5.0635815537999997
   103   3     0.61411470165744764      89.111562213157256           11.8416575997
   104   3     0.61411470165744764      89.111562213157256           16.1275452197
   105   2     0.61498995640078347      2.9463335694424271           13.4298776893
   106   2     0.62370397383523968      98.845529840542795      5.0635815537999997
   107   1     0.62370397424297819      12.681980809623104      3.0874183849999999
   108   1     0.62370397424297819      12.681980809623104      7.1900737958000001
   109   4     0.65790008452503834      100.42221771454147      13.808564961699998
   110   2     0.65790008452503834      100.42221771454147      11.293897032299999
   111   2     0.65790008452503834      100.42221771454147      15.579784652299999
   112   2     0.65863354514574401      14.265458030014619           13.4298776893
   113   4      0.6699042685917812      128.50611883642864      5.2105475048000001
   114   2      0.6699042685917812      128.50611883642864               2.9496935
   115   2      0.6699042685917812      128.50611883642864      7.0523489108000001
   116   2     0.66990426899904754      42.342569805508113      5.0635815537999997
   117   2     0.70095200677128311      25.562534837872903           13.4298776893
   118   3     0.70168546739139337      111.73287321592568           11.8416575997
   119   3     0.70168546739139337      111.73287321592568           16.1275452197
   120   2     0.71610456260892863      158.16670783312998      5.0635815537999997
   121   1     0.71610456301645564       72.00315880221028      3.0874183849999999
   122   1     0.71610456301645564       72.00315880221028      7.1900737958000001
   123   2     0.74473738963825709      36.873190339257498           13.4298776893
   124   4      0.7454708502595806      123.04352871730921      13.808564961699998
   125   2      0.7454708502595806      123.04352871730921      11.293897032299999
   126   2      0.7454708502595806      123.04352871730921      15.579784652299999
   127   4      0.7623048573649307      15.500198766437492      5.2105475048000001
   128   2      0.7623048573649307      15.500198766437492               2.9496935
   129   2      0.7623048573649307      15.500198766437492      7.0523489108000001
   130   2     0.76230485777252677      101.66374779809613      5.0635815537999997
   131   2     0.78852277250583847      48.183845840641631           13.4298776893
   132   3     0.78925623312654392      134.35418421869409           11.8416575997
   133   3     0.78925623312654392      134.35418421869409           16.1275452197
   134   2     0.80850515138226586      45.160787763138828      5.0635815537999997
   135   1     0.80850515178971716      131.32433679479809      3.0874183849999999
   136   1     0.80850515178971716      131.32433679479809      7.1900737958000001
   137   2     0.83230815537342295      59.494501342025913           13.4298776893
   138   4     0.83289982187213008      145.67330867926654      13.808564961699998
   139   2     0.83289982187213008      145.67330867926654      11.293897032299999
   140   2     0.83289982187213008      145.67330867926654      15.579784652299999
   141   4     0.85470544613856625      74.821376759024673      5.2105475048000001
   142   2     0.85470544613856625      74.821376759024673               2.9496935
   143   2     0.85470544613856625      74.821376759024673      7.0523489108000001
   144   2     0.85470544654600666      160.98492579068395      5.0635815537999997
   145   2     0.87609353824100267      70.805156843410202           13.4298776893
   146   3     0.87682699886110216      156.97549522146267           11.8416575997
   147   3     0.87682699886110216      156.97549522146267           16.1275452197
   148   2     0.90090574015567582      104.48196575572662      5.0635815537999997
   149   1     0.90090574056339279      18.318416724806326      3.0874183849999999
   150   1     0.90090574056339279      18.318416724806326      7.1900737958000001
   151   2     0.91973712698596377      82.124281303982698           13.4298776893
   152   4      0.9204705876066841      168.29461968203498      13.808564961699998
   153   2      0.9204705876066841      168.29461968203498      11.293897032299999
   154   2      0.9204705876066841      168.29461968203498      15.579784652299999
   155   4     0.94710603491174916      134.14255475161247      5.2105475048000001
   156   2     0.94710603491174916      134.14255475161247               2.9496935
   157   2     0.94710603491174916      134.14255475161247      7.0523489108000001
   158   2      0.9471060353194769      47.979005720692172      5.0635815537999997
   159   2     0.96352250985354915      93.434936805367059           13.4298776893
   160   3     0.96425597047364953       7.278177120840553           11.8416575997
   161   3     0.96425597047364953       7.278177120840553           16.1275452197
   162   2      0.9933063289293983      163.80314374831306      5.0635815537999997
   163   1     0.99330632933704599      77.639594717393521      3.0874183849999999
   164   1     0.99330632933704599      77.639594717393521      7.1900737958000001
   165   4      1.0065744320998029      18.575253928698341      13.808564961699998
   166   2      1.0065744320998029      18.575253928698341      11.293897032299999
   167   2      1.0065744320998029      18.575253928698341      15.579784652299999
   168   2      1.0073078927199131      104.74559230675081           13.4298776893
   169   4      1.0395066236855184      21.136634681621324      5.2105475048000001
   170   2      1.0395066236855184      21.136634681621324               2.9496935
   171   2      1.0395066236855184      21.136634681621324      7.0523489108000001
   172   2      1.0395066240929201      107.30018371327998      5.0635815537999997
   173   3       1.050359814966775      29.885909430083085           11.8416575997
   174   3       1.050359814966775      29.885909430083085           16.1275452197
   175   2      1.0510932755881144      116.05624780813501           13.4298776893
   176   2      1.0857069177028149      50.797223678322659      5.0635815537999997
   177   1      1.0857069181104546      136.96077270998069      3.0874183849999999
   178   1      1.0857069181104546      136.96077270998069      7.1900737958000001
   179   4      1.0941451978343568       41.19656493146676      13.808564961699998
   180   2      1.0941451978343568       41.19656493146676      11.293897032299999
   181   2      1.0941451978343568       41.19656493146676      15.579784652299999
   182   2      1.0948786584550829      127.36690330951915           13.4298776893
   183   4      1.1319072124591494      80.457812674207901      5.2105475048000001
   184   2      1.1319072124591494      80.457812674207901               2.9496935
   185   2      1.1319072124591494      80.457812674207901      7.0523489108000001
   186   2      1.1319072128665852      166.62136170586717      5.0635815537999997
   187   3      1.1379305807013231      52.507220432851504           11.8416575997
   188   3      1.1379305807013231      52.507220432851504           16.1275452197
   189   2       1.138522247200642      138.68602777009184           13.4298776893
   190   2      1.1781075064763589      110.11840167090985      5.0635815537999997
   191   1      1.1781075068837699      23.954852639989245      3.0874183849999999
   192   1      1.1781075068837699      23.954852639989245      7.1900737958000001
   193   4      1.1817159635689092      63.817875934235332      13.808564961699998
   194   2      1.1817159635689092      63.817875934235332      11.293897032299999
   195   2      1.1817159635689092      63.817875934235332      15.579784652299999
   196   2       1.182307630067615      149.99668327147606           13.4298776893
   197   4        1.22430780123248      139.77899066679564      5.2105475048000001
   198   2        1.22430780123248      139.77899066679564               2.9496935
   199   2        1.22430780123248      139.77899066679564      7.0523489108000001
   200   2      1.2243078016399034      53.615441635876003      5.0635815537999997
   201   3      1.2255013464364928      75.128531435620232           11.8416575997
   202   3      1.2255013464364928      75.128531435620232           16.1275452197
   203   2      1.2260930129358092      161.30733877286025           13.4298776893
   204   4      1.2691449351814545       86.44765589619189      13.808564961699998
   205   2      1.2691449351814545       86.44765589619189      11.293897032299999
   206   2      1.2691449351814545       86.44765589619189      15.579784652299999
   207   2      1.2698783958027808     0.29089621166587593           13.4298776893
   208   2      1.2705080952499614      169.43957966349657      5.0635815537999997
   209   1      1.2705080956574821      83.276030632577346      3.0874183849999999
   210   1      1.2705080956574821      83.276030632577346      7.1900737958000001
   211   3      1.3129303180490393      97.758311397577089           11.8416575997
   212   3      1.3129303180490393      97.758311397577089           16.1275452197
   213   2      1.3136637786703635      11.601551713050085           13.4298776893
   214   4      1.3167083900061056      26.773070596804239      5.2105475048000001
   215   2      1.3167083900061056      26.773070596804239               2.9496935
   216   2      1.3167083900061056      26.773070596804239      7.0523489108000001
   217   2      1.3167083904135501      112.93661962846274      5.0635815537999997
   218   2      1.3559822402952935      22.898628520908062           13.4298776893
   219   4      1.3567157009160189      109.06896689896008      13.808564961699998
   220   2      1.3567157009160189      109.06896689896008      11.293897032299999
   221   2      1.3567157009160189      109.06896689896008      15.579784652299999
   222   2      1.3629086840232865      56.433659593505233      5.0635815537999997
   223   1      1.3629086844310327      142.59720862516397      3.0874183849999999
   224   1      1.3629086844310327      142.59720862516397      7.1900737958000001
   225   2      1.3997676231634881      34.209284022292657           13.4298776893
   226   3      1.4005010837836052      120.37962240034483           11.8416575997
   227   3      1.4005010837836052      120.37962240034483           16.1275452197
   228   4      1.4091089787797397      86.094248589391114      5.2105475048000001
   229   2      1.4091089787797397      86.094248589391114               2.9496935
   230   2      1.4091089787797397      86.094248589391114      7.0523489108000001
   231   2      1.4091089791871805        172.257797621051      5.0635815537999997
   232   2      1.4435530060298427      45.519939523676946           13.4298776893
   233   4      1.4442864666517901      131.69027790172905      13.808564961699998
   234   2      1.4442864666517901      131.69027790172905      11.293897032299999
   235   2      1.4442864666517901      131.69027790172905      15.579784652299999
   236   2      1.4553092727971464      115.75483758609306      5.0635815537999997
   237   1      1.4553092732043538      29.591288555173382      3.0874183849999999
   238   1      1.4553092732043538      29.591288555173382      7.1900737958000001
   239   2      1.4873383888980396      56.830595025060767           13.4298776893
   240   3      1.4879300553967469      143.00940236230201           11.8416575997
   241   3      1.4879300553967469      143.00940236230201           16.1275452197
   242   4      1.5015095675530676      145.41542658197892      5.2105475048000001
   243   2      1.5015095675530676      145.41542658197892               2.9496935
   244   2      1.5015095675530676      145.41542658197892      7.0523489108000001
   245   2      1.5015095679607788      59.251877551059238      5.0635815537999997
   246   2      1.5311237717643955      68.141250526445049           13.4298776893
   247   4       1.531715438263727      154.32005786368555      13.808564961699998
   248   2       1.531715438263727      154.32005786368555      11.293897032299999
   249   2       1.531715438263727      154.32005786368555      15.579784652299999
   250   2      1.5477098615702991      2.7489175161019208      5.0635815537999997
   251   1       1.547709861977828      88.912466547761184      3.0874183849999999
   252   1       1.547709861977828      88.912466547761184      7.1900737958000001
   253   2       1.574767360510585       79.46037498701763           13.4298776893
   254   3      1.5755008211306987      165.63071336507011           11.8416575997
   255   3      1.5755008211306987      165.63071336507011           16.1275452197
   256   4       1.593910156326575      32.409506511988383      5.2105475048000001
   257   2       1.593910156326575      32.409506511988383               2.9496935
   258   2       1.593910156326575      32.409506511988383      7.0523489108000001
   259   2      1.5939101567341276      118.57305554364619      5.0635815537999997
   260   2      1.6185527433775577      90.771030488401834           13.4298776893
   261   4      1.6192862039988831      4.6142708038753693      13.808564961699998
   262   2      1.6192862039988831      4.6142708038753693      11.293897032299999
   263   2      1.6192862039988831      4.6142708038753693      15.579784652299999
   264   2      1.6401104503438728       62.07009550868888      5.0635815537999997
   265   1      1.6401104507514692      148.23364454034837      3.0874183849999999
   266   1      1.6401104507514692      148.23364454034837      7.1900737958000001
   267   2      1.6623381262451413      102.08168598978605           13.4298776893
   268   3      1.6630715868658532      15.924926305259579           11.8416575997
   269   3      1.6630715868658532      15.924926305259579           16.1275452197
   270   4      1.6863107451000547      91.730684504575564      5.2105475048000001
   271   2      1.6863107451000547      91.730684504575564               2.9496935
   272   2      1.6863107451000547      91.730684504575564      7.0523489108000001
   273   2      1.6863107455077528      5.5671354736558794      5.0635815537999997
   274   4      1.7053900484913933      27.222003113117481      13.808564961699998
   275   2      1.7053900484913933      27.222003113117481      11.293897032299999
   276   2      1.7053900484913933      27.222003113117481      15.579784652299999
   277   2      1.7061235091121054       113.3923414911701           13.4298776893
   278   2      1.7325110391171923      121.39127350127637      5.0635815537999997
   279   1      1.7325110395249388      35.227724470356151      3.0874183849999999
   280   1      1.7325110395249388      35.227724470356151      7.1900737958000001
   281   3      1.7491754313589756      38.532658614502076           11.8416575997
   282   3      1.7491754313589756      38.532658614502076           16.1275452197
   283   2      1.7499088919796941      124.70299699255415           13.4298776893
   284   4      1.7787113338734468      151.05186249716337      5.2105475048000001
   285   2      1.7787113338734468      151.05186249716337               2.9496935
   286   2      1.7787113338734468      151.05186249716337      7.0523489108000001
   287   2      1.7787113342808574      64.888313466243062      5.0635815537999997
   288   4      1.7929608142265594      49.843314115886209      13.808564961699998
   289   2      1.7929608142265594      49.843314115886209      11.293897032299999
   290   2      1.7929608142265594      49.843314115886209      15.579784652299999
   291   2      1.7936942748466707      136.01365249393868           13.4298776893
   292   2      1.8249116278906752      8.3853534312857558      5.0635815537999997
   293   1      1.8249116282982689       94.54890246294363      3.0874183849999999
   294   1      1.8249116282982689       94.54890246294363      7.1900737958000001
   295   3      1.8367461970935333      61.153969617270803           11.8416575997
   296   3      1.8367461970935333      61.153969617270803           16.1275452197
   297   2       1.837337863592247      147.33277695451119           13.4298776893
   298   4      1.8711119226469728      38.045942427171298      5.2105475048000001
   299   2      1.8711119226469728      38.045942427171298               2.9496935
   300   2      1.8711119226469728      38.045942427171298      7.0523489108000001
   301   2         1.8711119230547       124.2094914588298      5.0635815537999997
   302   4      1.8805315799611175       72.46462511865478      13.808564961699998
   303   2      1.8805315799611175       72.46462511865478      11.293897032299999
   304   2      1.8805315799611175       72.46462511865478      15.579784652299999
   305   2      1.8811232464592187      158.64343245589572           13.4298776893
   306   2      1.9173122166640826      67.706531423873557      5.0635815537999997
   307   1      1.9173122170718957      153.87008045553159      3.0874183849999999
   308   1      1.9173122170718957      153.87008045553159      7.1900737958000001
   309   3      1.9241751687060713      83.783749579227361           11.8416575997
   310   3      1.9241751687060713      83.783749579227361           16.1275452197
   311   2      1.9249086293267965       169.9540879572796           13.4298776893
   312   4      1.9635125114201772      97.367120419759402      5.2105475048000001
   313   2      1.9635125114201772      97.367120419759402               2.9496935
   314   2      1.9635125114201772      97.367120419759402      7.0523489108000001
   315   2      1.9635125118278096      11.203571388839102      5.0635815537999997
   316   4       1.967960551573662      95.094405080611565      13.808564961699998
   317   2       1.967960551573662      95.094405080611565      11.293897032299999
   318   2       1.967960551573662      95.094405080611565      15.579784652299999
   319   2      1.9686940121943719      8.9376453960852089           13.4298776893
   320   2      2.0097128054377764      127.02770941646001      5.0635815537999997
   321   1       2.009712805845302      40.864160385540437      3.0874183849999999
   322   1       2.009712805845302      40.864160385540437      7.1900737958000001
   323   2      2.0110124738199118      20.234722203942919           13.4298776893
   324   3       2.011745934440635      106.40506058199577           11.8416575997
   325   3       2.011745934440635      106.40506058199577           16.1275452197
   326   2      2.0547978566868834      31.545377705327208           13.4298776893
   327   4      2.0555313173082279      117.71571608337929      13.808564961699998
   328   2      2.0555313173082279      117.71571608337929      11.293897032299999
   329   2      2.0555313173082279      117.71571608337929      15.579784652299999
   330   4      2.0559131001939304      156.68829841234657      5.2105475048000001
   331   2      2.0559131001939304      156.68829841234657               2.9496935
   332   2      2.0559131001939304      156.68829841234657      7.0523489108000001
   333   2      2.0559131006017495       70.52474938142629      5.0635815537999997
   334   2      2.0985832395544679        42.8560332067118           13.4298776893
   335   3      2.0993167001751911      129.02637158476418           11.8416575997
   336   3      2.0993167001751911      129.02637158476418           16.1275452197
   337   2      2.1021133942114543      14.021789346468978      5.0635815537999997
   338   1       2.102113394618851      100.18533837812718      3.0874183849999999
   339   1       2.102113394618851      100.18533837812718      7.1900737958000001
   340   2      2.1423686224220506      54.166688708095926           13.4298776893
   341   4       2.142960288921377      140.34549604533649      13.808564961699998
   342   2       2.142960288921377      140.34549604533649      11.293897032299999
   343   2       2.142960288921377      140.34549604533649      15.579784652299999
   344   4      2.1483136889675607      43.682378342354575      5.2105475048000001
   345   2      2.1483136889675607      43.682378342354575               2.9496935
   346   2      2.1483136889675607      43.682378342354575      7.0523489108000001
   347   2       2.148313689375144      129.84592737401408      5.0635815537999997
   348   2      2.1861540052896355      65.477344209480378           13.4298776893
   349   3      2.1867456717883438      151.65615154672102           11.8416575997
   350   3      2.1867456717883438      151.65615154672102           16.1275452197
   351   2      2.1945139829849674       73.34296733905677      5.0635815537999997
   352   1      2.1945139833924197      159.50651637071542      3.0874183849999999
   353   1      2.1945139833924197      159.50651637071542      7.1900737958000001
   354   2      2.2299393881566005       76.78799971086481           13.4298776893
   355   4      2.2305310546559216      162.96680704810487      13.808564961699998
   356   2      2.2305310546559216      162.96680704810487      11.293897032299999
   357   2      2.2305310546559216      162.96680704810487      15.579784652299999