(written by ASE)

2513 atoms
4 atom types

0.0      52.194032733710507  xlo xhi
0.0      52.194032733710507  ylo yhi
0.0      62.724524824900001  zlo zhi

Masses

     1      15.998999995884349 # O
     2      207.19999994669897 # Pb
     3      87.619999977460253 # Sr
     4      47.866999987686484 # Ti

Atoms # atomic

     1   4  0.00041082980956236423      39.068989503409767      14.821690906400001
     2   1  0.00041082980956236423      39.068989503409767      12.865340251399999
     3   1  0.00041082980956236423      39.068989503409767      16.778041561400002
     4   3  0.00082457677006966378      12.934694825739301      12.865340251399999
     5   3  0.00082457677006966378      12.934694825739301      16.778041561400002
     6   1    0.019028796488729877      47.309672022994889      14.821690906400001
     7   1    0.019442543449240297      21.175377345324424      14.821690906400001
     8   1     0.07209120543292423      50.824299830477578      6.1894973934999999
     9   2    0.072091205432970124      24.727283463622328      4.6012773038999999
    10   2    0.072091205432970124      24.727283463622328      8.8871649239000003
    11   4     0.17007010475328163      2.9647858985409368      14.821690906400001
    12   1     0.17007010475328163      2.9647858985409368      12.865340251399999
    13   1     0.17007010475328163      2.9647858985409368      16.778041561400002
    14   3     0.17548382105383173      29.048265057493285      12.865340251399999
    15   3     0.17548382105383173      29.048265057493285      16.778041561400002
    16   1     0.21627361629958367       48.08483402401211      6.1894973934999999
    17   4     0.21627361629965119      21.987817657157056      6.5681846658999996
    18   1     0.21627361629965119      21.987817657157056      4.0535167364999998
    19   1     0.21627361629965119      21.987817657157056      8.3394043564999993
    20   1     0.31197980837353761      37.338504352008258      14.821690906400001
    21   1     0.31281313659695437      11.245444835638457      14.821690906400001
    22   1     0.36045602716613356      45.345368217546657      6.1894973934999999
    23   2     0.36045602716623909      19.248351850691403      4.6012773038999999
    24   2     0.36045602716623909      19.248351850691403      8.8871649239000003
    25   4     0.45928572538825191      19.269112447514829      14.821690906400001
    26   1     0.45928572538825191      19.269112447514829      12.865340251399999
    27   1     0.45928572538825191      19.269112447514829      16.778041561400002
    28   4     0.50463843803275887      16.508886044225939      6.5681846658999996
    29   1     0.50463843803275887      16.508886044225939      4.0535167364999998
    30   1     0.50463843803275887      16.508886044225939      8.3394043564999993
    31   1     0.50463843803281683      42.605902411081189      6.1894973934999999
    32   3      0.5933932263266003      45.218047021359837      12.865340251399999
    33   3      0.5933932263266003      45.218047021359837      16.778041561400002
    34   1      0.6078387175868879      1.1663990826916286      14.821690906400001
    35   1     0.60825246454758219      27.226137138731755      14.821690906400001
    36   1     0.64882084889936054      39.866436604615721      6.1894973934999999
    37   2      0.6488208488994639      13.769420237760473      4.6012773038999999
    38   2      0.6488208488994639      13.769420237760473      8.8871649239000003
    39   4     0.75182299031236532      35.432239454198658      14.821690906400001
    40   1     0.75182299031236532      35.432239454198658      12.865340251399999
    41   1     0.75182299031236532      35.432239454198658      16.778041561400002
    42   3     0.75265631853559622      9.3391799378290443      12.865340251399999
    43   3     0.75265631853559622      9.3391799378290443      16.778041561400002
    44   4     0.79300325976598218       11.02995443129501      6.5681846658999996
    45   1     0.79300325976598218       11.02995443129501      4.0535167364999998
    46   1     0.79300325976598218       11.02995443129501      8.3394043564999993
    47   1     0.79300325976599872      37.126970798150253      6.1894973934999999
    48   1     0.90286429857672723      43.281386063455201      14.821690906400001
    49   1     0.90369762680014498      17.188326547085495      14.821690906400001
    50   1     0.93718567063259373      34.387504991684793      6.1894973934999999
    51   2     0.93718567063264135       8.290488624829548      4.6012773038999999
    52   2     0.93718567063264135       8.290488624829548      8.8871649239000003
    53   3      1.0460210773810952      25.427750322882353      12.865340251399999
    54   3      1.0460210773810952      25.427750322882353      16.778041561400002
    55   4       1.081368081499207      5.5510228183640828      6.5681846658999996
    56   1       1.081368081499207      5.5510228183640828      4.0535167364999998
    57   1       1.081368081499207      5.5510228183640828      8.3394043564999993
    58   1      1.0813680814992783      31.648039185219421      6.1894973934999999
    59   4      1.1863756228436251      51.367104539309729      14.821690906400001
    60   1      1.1863756228436251      51.367104539309729      12.865340251399999
    61   1      1.1863756228436251      51.367104539309729      16.778041561400002
    62   1      1.1916661722513742      33.525974556389244      14.821690906400001
    63   1      1.1924995004746062      7.4329150400192612      14.821690906400001
    64   1      1.2255504923658427      28.908573378753868      6.1894973934999999
    65   2      1.2255504923658653      2.8115570118986195      4.6012773038999999
    66   2      1.2255504923658653      2.8115570118986195      8.8871649239000003
    67   3      1.3406329114105178      41.482999247605989      12.865340251399999
    68   3      1.3406329114105178      41.482999247605989      16.778041561400002
    69   4      1.3410466583711187      15.348704569935524      14.821690906400001
    70   1      1.3410466583711187      15.348704569935524      12.865340251399999
    71   1      1.3410466583711187      15.348704569935524      16.778041561400002
    72   4       1.369732903232475     0.07209120543315517      6.5681846658999996
    73   1       1.369732903232475     0.07209120543315517      4.0535167364999998
    74   1       1.369732903232475     0.07209120543315517      8.3394043564999993
    75   1      1.3697329032324743      26.169107572288496      6.1894973934999999
    76   1      1.4854505123594126      49.655780102743307      14.821690906400001
    77   1      1.4858642593199167      23.521485425072846      14.821690906400001
    78   2      1.5139153140990114      49.526658132678186      4.6012773038999999
    79   2      1.5139153140990114      49.526658132678186      8.8871649239000003
    80   1      1.5139153140990207      23.429641765822936      6.1894973934999999
    81   4      1.6356584924004518      31.403953494659163      14.821690906400001
    82   1      1.6356584924004518      31.403953494659163      12.865340251399999
    83   1      1.6356584924004518      31.403953494659163      16.778041561400002
    84   3       1.636491820623684      5.3108939782890827      12.865340251399999
    85   3       1.636491820623684      5.3108939782890827      16.778041561400002
    86   4      1.6580977249656781      46.787192326212725      6.5681846658999996
    87   1      1.6580977249656781      46.787192326212725      4.0535167364999998
    88   1      1.6580977249656781      46.787192326212725      8.3394043564999993
    89   1      1.6580977249657001      20.690175959357475      6.1894973934999999
    90   1      1.7796485994279598      39.651290971426867      14.821690906400001
    91   1      1.7800623463888356      13.516996293756426      14.821690906400001
    92   2       1.802280135832212      44.047726519747258      4.6012773038999999
    93   2       1.802280135832212      44.047726519747258      8.8871649239000003
    94   1      1.8022801358322358      17.950710152892011      6.1894973934999999
    95   4       1.925293694298239      47.749515204933616      14.821690906400001
    96   1       1.925293694298239      47.749515204933616      12.865340251399999
    97   1       1.925293694298239      47.749515204933616      16.778041561400002
    98   3      1.9257074412587438      21.615220527263389      12.865340251399999
    99   3      1.9257074412587438      21.615220527263389      16.778041561400002
   100   1      1.9464625466988554       15.21124434642655      6.1894973934999999
   101   4      1.9464625466988776      41.308260713281797      6.5681846658999996
   102   1      1.9464625466988776      41.308260713281797      4.0535167364999998
   103   1      1.9464625466988776      41.308260713281797      8.3394043564999993
   104   1      2.0730133582735495       3.545828622769966      14.821690906400001
   105   1       2.073427105234058      29.605566678809851      14.821690906400001
   106   2      2.0906449575654178      38.568794906816329      4.6012773038999999
   107   2      2.0906449575654178      38.568794906816329      8.8871649239000003
   108   1      2.0906449575654382      12.471778539961083      6.1894973934999999
   109   3      2.2182447061830417      37.778347533947269      12.865340251399999
   110   3      2.2182447061830417      37.778347533947269      16.778041561400002
   111   4      2.2186584531437359      11.644052856276712      14.821690906400001
   112   1      2.2186584531437359      11.644052856276712      12.865340251399999
   113   1      2.2186584531437359      11.644052856276712      16.778041561400002
   114   4      2.2348273684320508      35.829329100350868      6.5681846658999996
   115   1      2.2348273684320508      35.829329100350868      4.0535167364999998
   116   1      2.2348273684320508      35.829329100350868      8.3394043564999993
   117   1      2.2348273684320783      9.7323127334956183      6.1894973934999999
   118   1      2.3726193273408946      45.643321545145326      14.821690906400001
   119   1      2.3734526555643121      19.550262028775432      14.821690906400001
   120   2      2.3790097792986873      33.089863293885401      4.6012773038999999
   121   2      2.3790097792986873      33.089863293885401      8.8871649239000003
   122   1      2.3790097792987144      6.9928469270301559      6.1894973934999999
   123   4       2.511195718067849      27.807179862960549      14.821690906400001
   124   1       2.511195718067849      27.807179862960549      12.865340251399999
   125   1       2.511195718067849      27.807179862960549      16.778041561400002
   126   3      2.5120290462910817       1.714120346590744      12.865340251399999
   127   3      2.5120290462910817       1.714120346590744      16.778041561400002
   128   4      2.5231921901651972      30.350397487419752      6.5681846658999996
   129   1      2.5231921901651972      30.350397487419752      4.0535167364999998
   130   1      2.5231921901651972      30.350397487419752      8.3394043564999993
   131   1      2.5231921901652798      4.2533811205646916      6.1894973934999999
   132   1      2.6580878881218659      35.872082636137669      14.821690906400001
   133   1      2.6585016350823771      9.7377879584672531      14.821690906400001
   134   1       2.667374601031911      1.5139153140992281      6.1894973934999999
   135   2      2.6673746010319097      27.610931680954479      4.6012773038999999
   136   2      2.6673746010319097      27.610931680954479      8.8871649239000003
   137   4       2.805807552097185      43.862428787684173      14.821690906400001
   138   1       2.805807552097185      43.862428787684173      12.865340251399999
   139   1       2.805807552097185      43.862428787684173      16.778041561400002
   140   3       2.806640880320598      17.769369271314307      12.865340251399999
   141   3       2.806640880320598      17.769369271314307      16.778041561400002
   142   4      2.8115570118985018      24.871465874489012      6.5681846658999996
   143   1      2.8115570118985018      24.871465874489012      4.0535167364999998
   144   1      2.8115570118985018      24.871465874489012      8.3394043564999993
   145   1      2.8115570118985045      50.968482241344255      6.1894973934999999
   146   2      2.9557394227651153      22.132000068023547      4.6012773038999999
   147   2      2.9557394227651153      22.132000068023547      8.8871649239000003
   148   1      2.9557394227651148      48.229016434878794      6.1894973934999999
   149   1      2.9656017238578039      51.792379063095119      14.821690906400001
   150   1      2.9656075581600172      25.773876168355798      14.821690906400001
   151   1      3.0999218336316132      45.489550628413149      6.1894973934999999
   152   4      3.0999218336316536      19.392534261558087      6.5681846658999996
   153   1      3.0999218336316536      19.392534261558087      4.0535167364999998
   154   1      3.0999218336316536      19.392534261558087      8.3394043564999993
   155   4      3.1016664613105314      7.6903235183675509      14.821690906400001
   156   1      3.1016664613105314      7.6903235183675509      12.865340251399999
   157   1      3.1016664613105314      7.6903235183675509      16.778041561400002
   158   3      3.1020802082711323      33.750061574407674      12.865340251399999
   159   3      3.1020802082711323      33.750061574407674      16.778041561400002
   160   1      3.2441042444982462      42.750084821947688      6.1894973934999999
   161   2      3.2441042444983399      16.653068455092622      4.6012773038999999
   162   2      3.2441042444983399      16.653068455092622      8.8871649239000003
   163   1      3.2448232401150863      42.030720511505201      14.821690906400001
   164   1      3.2452369870754061      15.896425833834781      14.821690906400001
   165   4      3.3882866553648743      13.913602648627156      6.5681846658999996
   166   1      3.3882866553648743      13.913602648627156      4.0535167364999998
   167   1      3.3882866553648743      13.913602648627156      8.3394043564999993
   168   1      3.3882866553648969      40.010619015482405      6.1894973934999999
   169   3      3.3917154101687257      50.095623284682134      12.865340251399999
   170   3      3.3917154101687257      50.095623284682134      16.778041561400002
   171   2      3.5324690662314699      11.174136842161507      4.6012773038999999
   172   2      3.5324690662314699      11.174136842161507      8.8871649239000003
   173   1      3.5324690662314935      37.271153209016937      6.1894973934999999
   174   4      3.5587247901744314      23.810537038699824      14.821690906400001
   175   1      3.5587247901744314      23.810537038699824      12.865340251399999
   176   1      3.5587247901744314      23.810537038699824      16.778041561400002
   177   1      3.5590037016377036      5.7886390086353634      14.821690906400001
   178   1       3.559009535939734      31.964168847606441      14.821690906400001
   179   4      3.6766514770981216      8.4346710356960415      6.5681846658999996
   180   1      3.6766514770981216      8.4346710356960415      4.0535167364999998
   181   1      3.6766514770981216      8.4346710356960415      8.3394043564999993
   182   1      3.6766514770981416      34.531687402551476      6.1894973934999999
   183   4      3.6846664220537257      40.124455613695595      14.821690906400001
   184   1      3.6846664220537257      40.124455613695595      12.865340251399999
   185   1      3.6846664220537257      40.124455613695595      16.778041561400002
   186   3      3.6850801690142321      13.990160936025182      12.865340251399999
   187   3      3.6850801690142321      13.990160936025182      16.778041561400002
   188   2      3.8208338879646129      5.6952052292305781      4.6012773038999999
   189   2      3.8208338879646129      5.6952052292305781      8.8871649239000003
   190   1      3.8208338879647177      31.792221596086012      6.1894973934999999
   191   1      3.8344606551341633      48.006923683281912      14.821690906400001
   192   1      3.8348744020948584      21.872629005611451      14.821690906400001
   193   1      3.9650162988312139      29.052755789620363      6.1894973934999999
   194   4      3.9650162988313289      2.9557394227653004      6.5681846658999996
   195   1      3.9650162988313289      2.9557394227653004      4.0535167364999998
   196   1      3.9650162988313289      2.9557394227653004      8.3394043564999993
   197   3      3.9776174339387147      30.153287942709156      12.865340251399999
   198   3      3.9776174339387147      30.153287942709156      16.778041561400002
   199   4      3.9780311808990376      4.0189932650385973      14.821690906400001
   200   1      3.9780311808990376      4.0189932650385973      12.865340251399999
   201   1      3.9780311808990376      4.0189932650385973      16.778041561400002
   202   2      4.1091987096978828      0.2162736162997444      4.6012773038999999
   203   2      4.1091987096978828      0.2162736162997444      8.8871649239000003
   204   1      4.1091987096979166      26.313289983155084      6.1894973934999999
   205   1      4.1519860981546097      11.937696526585345      14.821690906400001
   206   1      4.1519919324568262      38.113226365556471      14.821690906400001
   207   1      4.2533811205645042      23.573824176689435      6.1894973934999999
   208   4      4.2533811205645469      49.670840543544777      6.5681846658999996
   209   1      4.2533811205645469      49.670840543544777      4.0535167364999998
   210   1      4.2533811205645469      49.670840543544777      8.3394043564999993
   211   4      4.2718155210072597      20.148798811392663      14.821690906400001
   212   1      4.2718155210072597      20.148798811392663      12.865340251399999
   213   1      4.2718155210072597      20.148798811392663      16.778041561400002
   214   3      4.2722292679677691      46.208536867432635      12.865340251399999
   215   3      4.2722292679677691      46.208536867432635      16.778041561400002
   216   1      4.3975635314311283      20.834358370224155      6.1894973934999999
   217   2      4.3975635314311265      46.931374737079217      4.6012773038999999
   218   2      4.3975635314311265      46.931374737079217      8.8871649239000003
   219   1      4.4174606158771681      28.247023044899464      14.821690906400001
   220   1      4.4178743628378632       2.112728367229046      14.821690906400001
   221   1      4.5417459422976423      18.094892563758506      6.1894973934999999
   222   4      4.5417459422976627      44.191908930613764      6.5681846658999996
   223   1      4.5417459422976627      44.191908930613764      4.0535167364999998
   224   1      4.5417459422976627      44.191908930613764      8.3394043564999993
   225   3      4.5668411019972854      10.069753058445833      12.865340251399999
   226   3      4.5668411019972854      10.069753058445833      16.778041561400002
   227   4      4.5672548489578855      36.129491114485774      14.821690906400001
   228   1      4.5672548489578855      36.129491114485774      12.865340251399999
   229   1      4.5672548489578855      36.129491114485774      16.778041561400002
   230   2      4.6859283531643339      41.452443124148296      4.6012773038999999
   231   2      4.6859283531643339      41.452443124148296      8.8871649239000003
   232   1      4.6859283531643543      15.355426757293044      6.1894973934999999
   233   1      4.7449684946716078      18.086754044535422      14.821690906400001
   234   1      4.7449743289737283      44.262283883506406      14.821690906400001
   235   4      4.8301107640308203      38.712977317682828      6.5681846658999996
   236   1      4.8301107640308203      38.712977317682828      4.0535167364999998
   237   1      4.8301107640308203      38.712977317682828      8.3394043564999993
   238   1      4.8301107640308691       12.61596095082758      6.1894973934999999
   239   3      4.8573037978161802      26.340758147089954      12.865340251399999
   240   3      4.8573037978161802      26.340758147089954      16.778041561400002
   241   4      4.8577175447768726     0.20646346941944729      14.821690906400001
   242   1      4.8577175447768726     0.20646346941944729      12.865340251399999
   243   1      4.8577175447768726     0.20646346941944729      16.778041561400002
   244   2      4.9742931748975394       35.97351151121736      4.6012773038999999
   245   2      4.9742931748975394       35.97351151121736      8.8871649239000003
   246   1       4.974293174897543      9.8764951443622078      6.1894973934999999
   247   1      5.0046097148308926      8.2713662425964802      14.821690906400001
   248   1      5.0050234617915859      34.331104298636511      14.821690906400001
   249   4      5.1184755857640738        33.2340457047519      6.5681846658999996
   250   1      5.1184755857640738        33.2340457047519      4.0535167364999998
   251   1      5.1184755857640738        33.2340457047519      8.3394043564999993
   252   1      5.1184755857641315      7.1370293378967453      6.1894973934999999
   253   4      5.1502548097009866      16.369590476103141      14.821690906400001
   254   1      5.1502548097009866      16.369590476103141      12.865340251399999
   255   1      5.1502548097009866      16.369590476103141      16.778041561400002
   256   3      5.1510881379242175      42.470563693444028      12.865340251399999
   257   3      5.1510881379242175      42.470563693444028      16.778041561400002
   258   1      5.2626579966307201      4.3975635314311878      6.1894973934999999
   259   2      5.2626579966307707      30.494579898286528      4.6012773038999999
   260   2      5.2626579966307707      30.494579898286528      8.8871649239000003
   261   1      5.3004686240442416      24.293293706990298      14.821690906400001
   262   1      5.3387842194120223      50.336784779826004      14.821690906400001
   263   4      5.4068404074973184      27.755114091820971      6.5681846658999996
   264   1      5.4068404074973184      27.755114091820971      4.0535167364999998
   265   1      5.4068404074973184      27.755114091820971      8.3394043564999993
   266   1      5.4068404074973548      1.6580977249657245      6.1894973934999999
   267   4      5.4440391498092104      32.499396022457297      14.821690906400001
   268   1      5.4440391498092104      32.499396022457297      12.865340251399999
   269   1      5.4440391498092104      32.499396022457297      16.778041561400002
   270   3      5.4444528967697181      6.3651013447870204      12.865340251399999
   271   3      5.4444528967697181      6.3651013447870204      16.778041561400002
   272   1      5.5510228183639256      51.112664652210754      6.1894973934999999
   273   2      5.5510228183639896      25.015648285355603      4.6012773038999999
   274   2      5.5510228183639896      25.015648285355603      8.8871649239000003
   275   1      5.5900979916398104      14.463325578293729      14.821690906400001
   276   1      5.5909313198632313      40.564298795634514      14.821690906400001
   277   4      5.6952052292305684      22.276182478890043      6.5681846658999996
   278   1      5.6952052292305684      22.276182478890043      4.0535167364999998
   279   1      5.6952052292305684      22.276182478890043      8.3394043564999993
   280   1      5.6952052292305693      48.373198845745293      6.1894973934999999
   281   4      5.7374039086545183      48.587966407510955      14.821690906400001
   282   1      5.7374039086545183      48.587966407510955      12.865340251399999
   283   1      5.7374039086545183      48.587966407510955      16.778041561400002
   284   1      5.8393876400970806      45.633733039279825      6.1894973934999999
   285   2      5.8393876400972067      19.536716672424763      4.6012773038999999
   286   2      5.8393876400972067      19.536716672424763      8.8871649239000003
   287   1      5.9313528689683697      30.426104241735953      14.821690906400001
   288   1      5.9313587032705408      4.4076013469965893      14.821690906400001
   289   3      5.9314877044657903      22.313707594130044      12.865340251399999
   290   3      5.9314877044657903      22.313707594130044      16.778041561400002
   291   4      5.9835700509637446      16.797250865959114      6.5681846658999996
   292   1      5.9835700509637446      16.797250865959114      4.0535167364999998
   293   1      5.9835700509637446      16.797250865959114      8.3394043564999993
   294   1      5.9835700509637526      42.894267232814599      6.1894973934999999
   295   4      6.0320157426839467      12.449182598523933      14.821690906400001
   296   1      6.0320157426839467      12.449182598523933      12.865340251399999
   297   1      6.0320157426839467      12.449182598523933      16.778041561400002
   298   3      6.0328490709073641      38.550155815864628      12.865340251399999
   299   3      6.0328490709073641      38.550155815864628      16.778041561400002
   300   1      6.1277524618303225      40.154801426348904      6.1894973934999999
   301   2      6.1277524618303918      14.057785059493746      4.6012773038999999
   302   2      6.1277524618303918      14.057785059493746      8.8871649239000003
   303   1      6.1768333436328406      20.621963453661252      14.821690906400001
   304   1      6.1772470905933465      46.681701509701426      14.821690906400001
   305   4      6.2719348726969457      11.318319253028186      6.5681846658999996
   306   1      6.2719348726969457      11.318319253028186      4.0535167364999998
   307   1      6.2719348726969457      11.318319253028186      8.3394043564999993
   308   1       6.271934872696991      37.415335619883436      6.1894973934999999
   309   4       6.334121696421545      28.461529705500439      14.821690906400001
   310   1       6.334121696421545      28.461529705500439      12.865340251399999
   311   1       6.334121696421545      28.461529705500439      16.778041561400002
   312   3      6.3349550246444979      2.3684701891303628      12.865340251399999
   313   3      6.3349550246444979      2.3684701891303628      16.778041561400002
   314   2       6.416117283563505      8.5788534465627251      4.6012773038999999
   315   2       6.416117283563505      8.5788534465627251      8.8871649239000003
   316   1      6.4161172835635583      34.675869813417975      6.1894973934999999
   317   1      6.5243352654854148      36.575161759686026      14.821690906400001
   318   1      6.5243410997876312      10.556658864946579      14.821690906400001
   319   1       6.560299694430114      31.936404006952507      6.1894973934999999
   320   4      6.5602996944301584      5.8393876400972609      6.5681846658999996
   321   1      6.5602996944301584      5.8393876400972609      4.0535167364999998
   322   1      6.5602996944301584      5.8393876400972609      8.3394043564999993
   323   3        6.61667652557185      18.715698555851841      12.865340251399999
   324   3        6.61667652557185      18.715698555851841      16.778041561400002
   325   4       6.617090272532355      44.775436611891756      14.821690906400001
   326   1       6.617090272532355      44.775436611891756      12.865340251399999
   327   1       6.617090272532355      44.775436611891756      16.778041561400002
   328   1      6.7044821052967558      29.196938200487043      6.1894973934999999
   329   2      6.7044821052968402      3.0999218336317971      4.6012773038999999
   330   2      6.7044821052968402      3.0999218336317971      8.8871649239000003
   331   1       6.765643264730997      26.672723247068539      14.821690906400001
   332   1      6.7660570116915055     0.53842856939812245      14.821690906400001
   333   1      6.8486645161633088      26.457472394021579      6.1894973934999999
   334   4      6.8486645161634048     0.36045602716633351      6.5681846658999996
   335   1      6.8486645161634048     0.36045602716633351      4.0535167364999998
   336   1      6.8486645161634048     0.36045602716633351      8.3394043564999993
   337   4      6.9096275374564735      8.7445308848652132      14.821690906400001
   338   1      6.9096275374564735      8.7445308848652132      12.865340251399999
   339   1      6.9096275374564735      8.7445308848652132      16.778041561400002
   340   3      6.9104608656797071      34.845504102205815      12.865340251399999
   341   3      6.9104608656797071      34.845504102205815      16.778041561400002
   342   1      6.9928469270299587      23.718006587556118      6.1894973934999999
   343   2      6.9928469270299614      49.815022954411361      4.6012773038999999
   344   2      6.9928469270299614      49.815022954411361      8.8871649239000003
   345   1      7.0606688457211151      16.593677494121756      14.821690906400001
   346   1       7.061502173944346      42.694650711462359      14.821690906400001
   347   1      7.1370293378965153      20.978540781090651      6.1894973934999999
   348   4      7.1370293378966316      47.075557147945908      6.5681846658999996
   349   1      7.1370293378966316      47.075557147945908      4.0535167364999998
   350   1      7.1370293378966316      47.075557147945908      8.3394043564999993
   351   4      7.2034118775645108      24.874336431219277      14.821690906400001
   352   1      7.2034118775645108      24.874336431219277      12.865340251399999
   353   1      7.2034118775645108      24.874336431219277      16.778041561400002
   354   3      7.2038256245252006      50.934074487259316      12.865340251399999
   355   3      7.2038256245252006      50.934074487259316      16.778041561400002
   356   2      7.2812117487631651       44.33609134148044      4.6012773038999999
   357   2      7.2812117487631651       44.33609134148044      8.8871649239000003