(written by ASE)

5775 atoms
4 atom types

0.0      79.127643368383858  xlo xhi
0.0      79.127643368383858  ylo yhi
0.0      62.724524824900001  zlo zhi

Masses

     1      15.998999995884349 # O
     2      207.19999994669897 # Pb
     3      87.619999977460253 # Sr
     4      47.866999987686484 # Ti

Atoms # atomic

     1   4 -4.2708218385519227e-17      4.9454777105237095      6.5681846658999996
     2   1 -4.2708218385519227e-17      4.9454777105237095      4.0535167364999998
     3   1 -4.2708218385519227e-17      4.9454777105237095      8.3394043564999993
     4   2  3.8800595247018013e-16       14.83643313157183      4.6012773038999999
     5   2  3.8800595247018013e-16       14.83643313157183      8.8871649239000003
     6   4  9.4546105688273388e-17      24.727388552619814      6.5681846658999996
     7   1  9.4546105688273388e-17      24.727388552619814      4.0535167364999998
     8   1  9.4546105688273388e-17      24.727388552619814      8.3394043564999993
     9   2  5.9354770672588623e-16      34.618343973667798      4.6012773038999999
    10   2  5.9354770672588623e-16      34.618343973667798      8.8871649239000003
    11   4   1.789293783702413e-15      44.509299394715775      6.5681846658999996
    12   1   1.789293783702413e-15      44.509299394715775      4.0535167364999998
    13   1   1.789293783702413e-15      44.509299394715775      8.3394043564999993
    14   2  7.0337248910098667e-16      54.400254815763759      4.6012773038999999
    15   2  7.0337248910098667e-16      54.400254815763759      8.8871649239000003
    16   4  2.7872969857776385e-15      64.291210236811736      6.5681846658999996
    17   1  2.7872969857776385e-15      64.291210236811736      4.0535167364999998
    18   1  2.7872969857776385e-15      64.291210236811736      8.3394043564999993
    19   2  3.0948646430540402e-15      74.182165657859713      4.6012773038999999
    20   2  3.0948646430540402e-15      74.182165657859713      8.8871649239000003
    21   1   0.0041651736921403185      32.629942048432511      14.821690906400001
    22   4   0.0047404832445037785      72.194685504753195      14.821690906400001
    23   1   0.0047404832445037785      72.194685504753195      12.865340251399999
    24   1   0.0047404832445037785      72.194685504753195      16.778041561400002
    25   1     0.10069934041684926      18.796790729206545      14.821690906400001
    26   3      0.1012746499689321      58.361534185527503      12.865340251399999
    27   3      0.1012746499689321      58.361534185527503      16.778041561400002
    28   1     0.19723350714127758       4.963639409980579      14.821690906400001
    29   4     0.19780881669392239      44.528382866301541      14.821690906400001
    30   1     0.19780881669392239      44.528382866301541      12.865340251399999
    31   1     0.19780881669392239      44.528382866301541      16.778041561400002
    32   3     0.29434298341835208      30.695231547075846      12.865340251399999
    33   3     0.29434298341835208      30.695231547075846      16.778041561400002
    34   1     0.29491829297029154      70.259975003396534      14.821690906400001
    35   1     0.38042136234780477      3.0433708987838428      6.1894973934999999
    36   1     0.38042136234780516      12.934326319831824      6.1894973934999999
    37   1     0.38042136234780488      22.825281740879806      6.1894973934999999
    38   1      0.3804213623478061      32.716237161927786      6.1894973934999999
    39   1     0.38042136234780677       42.60719258297577      6.1894973934999999
    40   1      0.3804213623478071      52.498148004023747      6.1894973934999999
    41   1     0.38042136234780599      62.389103425071731      6.1894973934999999
    42   1     0.38042136234780632      72.280058846119715      6.1894973934999999
    43   4     0.39087715014292046       16.86208022784988      14.821690906400001
    44   1     0.39087715014292046       16.86208022784988      12.865340251399999
    45   1     0.39087715014292046       16.86208022784988      16.778041561400002
    46   1     0.39145245969486075       56.42682368417028      14.821690906400001
    47   1     0.48798662641985247      42.593672364944311      14.821690906400001
    48   3     0.48856193597165393      3.0307724528811355      12.865340251399999
    49   3     0.48856193597165393      3.0307724528811355      16.778041561400002
    50   1      0.5845207931442824      28.760521045718622      14.821690906400001
    51   4     0.58509610269636325      68.325264502039019      14.821690906400001
    52   1     0.58509610269636325      68.325264502039019      12.865340251399999
    53   1     0.58509610269636325      68.325264502039019      16.778041561400002
    54   1     0.68105495986885167      14.927369726492371      14.821690906400001
    55   3     0.68163026942079297      54.492113182813327      12.865340251399999
    56   3     0.68163026942079297      54.492113182813327      16.778041561400002
    57   4     0.76084272469560887       40.70508577123605      6.5681846658999996
    58   1     0.76084272469560887       40.70508577123605      4.0535167364999998
    59   1     0.76084272469560887       40.70508577123605      8.3394043564999993
    60   2     0.76084272469561098      50.596041192284027      4.6012773038999999
    61   2     0.76084272469561098      50.596041192284027      8.8871649239000003
    62   4      0.7608427246956101      60.486996613332146      6.5681846658999996
    63   1      0.7608427246956101      60.486996613332146      4.0535167364999998
    64   1      0.7608427246956101      60.486996613332146      8.3394043564999993
    65   4     0.76084272469574987      1.1412640870439763      6.5681846658999996
    66   1     0.76084272469574987      1.1412640870439763      4.0535167364999998
    67   1     0.76084272469574987      1.1412640870439763      8.3394043564999993
    68   2     0.76084272469575043      11.032219508091922      4.6012773038999999
    69   2     0.76084272469575043      11.032219508091922      8.8871649239000003
    70   4     0.76084272469574965      20.923174929139869      6.5681846658999996
    71   1     0.76084272469574965      20.923174929139869      4.0535167364999998
    72   1     0.76084272469574965      20.923174929139869      8.3394043564999993
    73   2     0.76084272469574976      30.814130350187895      4.6012773038999999
    74   2     0.76084272469574976      30.814130350187895      8.8871649239000003
    75   2     0.76084272469575187      70.377952034379803      4.6012773038999999
    76   2     0.76084272469575187      70.377952034379803      8.8871649239000003
    77   4     0.77816443614578434      40.658961863587081      14.821690906400001
    78   1     0.77816443614578434      40.658961863587081      12.865340251399999
    79   1     0.77816443614578434      40.658961863587081      16.778041561400002
    80   1     0.77873974569758486      1.0960619515241883      14.821690906400001
    81   3     0.87469860287021328      26.825810544361392      12.865340251399999
    82   3     0.87469860287021328      26.825810544361392      16.778041561400002
    83   1      0.8752739124222958      66.390554000682073      14.821690906400001
    84   4     0.97123276959478244      12.992659225135425      14.821690906400001
    85   1     0.97123276959478244      12.992659225135425      12.865340251399999
    86   1     0.97123276959478244      12.992659225135425      16.778041561400002
    87   1     0.97180807914672485      52.557402681456097      14.821690906400001
    88   1      1.0683422458717151      38.724251362230135      14.821690906400001
    89   3      1.0689175554236552      78.288994818550535      12.865340251399999
    90   3      1.0689175554236552      78.288994818550535      16.778041561400002
    91   1      1.1412640870436956      9.1301126963519508      6.1894973934999999
    92   1      1.1412640870436952      19.021068117399935      6.1894973934999999
    93   1      1.1412640870436943      28.912023538448057      6.1894973934999999
    94   1      1.1412640870436976      38.802978959495888      6.1894973934999999
    95   1      1.1412640870436983      48.693934380543872      6.1894973934999999
    96   1      1.1412640870436987      58.584889801591849      6.1894973934999999
    97   1      1.1412640870436963      68.475845222639848      6.1894973934999999
    98   1      1.1412640870436934      78.366800643687824      6.1894973934999999
    99   1      1.1648764125962836      24.891100043003885      14.821690906400001
   100   4      1.1654517221482277      64.455843499324843      14.821690906400001
   101   1      1.1654517221482277      64.455843499324843      12.865340251399999
   102   1      1.1654517221482277      64.455843499324843      16.778041561400002
   103   1      1.2614105793207135      11.057948723778196      14.821690906400001
   104   3      1.2619858888726552      50.622692180098873      12.865340251399999
   105   3      1.2619858888726552      50.622692180098873      16.778041561400002
   106   4       1.358520055597507      36.789540860873188      14.821690906400001
   107   1       1.358520055597507      36.789540860873188      12.865340251399999
   108   1       1.358520055597507      36.789540860873188      16.778041561400002
   109   1      1.3590953651495923      76.354284317193574      14.821690906400001
   110   3      1.4550542223220744      22.956389541647219      12.865340251399999
   111   3      1.4550542223220744      22.956389541647219      16.778041561400002
   112   1      1.4556295318741583      62.521132997967896      14.821690906400001
   113   4      1.5216854493916401      17.118961305660065      6.5681846658999996
   114   1      1.5216854493916401      17.118961305660065      4.0535167364999998
   115   1      1.5216854493916401      17.118961305660065      8.3394043564999993
   116   2      1.5216854493916407      27.009916726708049      4.6012773038999999
   117   2      1.5216854493916407      27.009916726708049      8.8871649239000003
   118   4      1.5216854493916423      36.900872147756168      6.5681846658999996
   119   1      1.5216854493916423      36.900872147756168      4.0535167364999998
   120   1      1.5216854493916423      36.900872147756168      8.3394043564999993
   121   2      1.5216854493916412      46.791827568804152      4.6012773038999999
   122   2      1.5216854493916412      46.791827568804152      8.8871649239000003
   123   2      1.5216854493917815      7.2280058846118722      4.6012773038999999
   124   2      1.5216854493917815      7.2280058846118722      8.8871649239000003
   125   4      1.5216854493917813      56.682782989851781      6.5681846658999996
   126   1      1.5216854493917813      56.682782989851781      4.0535167364999998
   127   1      1.5216854493917813      56.682782989851781      8.3394043564999993
   128   2      1.5216854493917824      66.573738410899836      4.6012773038999999
   129   2      1.5216854493917824      66.573738410899836      8.8871649239000003
   130   4       1.521685449391782      76.464693831947741      6.5681846658999996
   131   1       1.521685449391782      76.464693831947741      4.0535167364999998
   132   1       1.521685449391782      76.464693831947741      8.3394043564999993
   133   4      1.5515883890466442      9.1232382224212483      14.821690906400001
   134   1      1.5515883890466442      9.1232382224212483      12.865340251399999
   135   1      1.5515883890466442      9.1232382224212483      16.778041561400002
   136   1      1.5521636985987273      48.687981678741636      14.821690906400001
   137   1      1.6486978653235771      34.854830359515674      14.821690906400001
   138   3      1.6492731748753808      74.419573815836628      12.865340251399999
   139   3      1.6492731748753808      74.419573815836628      16.778041561400002
   140   1      1.7452320320480061      21.021679040289989      14.821690906400001
   141   4      1.7458073416000899      60.586422496610659      14.821690906400001
   142   1      1.7458073416000899      60.586422496610659      12.865340251399999
   143   1      1.7458073416000899      60.586422496610659      16.778041561400002
   144   1      1.8417661987727154      7.1885277210640197      14.821690906400001
   145   3       1.842341508324516      46.753271177384697      12.865340251399999
   146   3       1.842341508324516      46.753271177384697      16.778041561400002
   147   1      1.9021068117395854      34.998765336016014      6.1894973934999999
   148   1      1.9021068117395843      44.889720757064005      6.1894973934999999
   149   1      1.9021068117395852      54.780676178112124      6.1894973934999999
   150   1      1.9021068117395854      64.671631599160108      6.1894973934999999
   151   1      1.9021068117397262      5.3258990728719358      6.1894973934999999
   152   1      1.9021068117397262      15.216854493919918      6.1894973934999999
   153   1      1.9021068117397255      25.107809914967898      6.1894973934999999
   154   1      1.9021068117397277        74.5625870202078      6.1894973934999999
   155   4      1.9388756750495095      32.920119858158728      14.821690906400001
   156   1      1.9388756750495095      32.920119858158728      12.865340251399999
   157   1      1.9388756750495095      32.920119858158728      16.778041561400002
   158   1        1.93945098460145      72.484863314479398      14.821690906400001
   159   3      2.0354098417739364      19.086968538932762      12.865340251399999
   160   3      2.0354098417739364      19.086968538932762      16.778041561400002
   161   1      2.0359851513260185      58.651711995253436      14.821690906400001
   162   4      2.1319440084986465      5.2538172197067912      14.821690906400001
   163   1      2.1319440084986465      5.2538172197067912      12.865340251399999
   164   1      2.1319440084986465      5.2538172197067912      16.778041561400002
   165   1      2.1325193180504467      44.818560676027751      14.821690906400001
   166   1      2.2290534847754389      30.985409356801501      14.821690906400001
   167   3      2.2296287943273803      70.550152813122182      12.865340251399999
   168   3      2.2296287943273803      70.550152813122182      16.778041561400002
   169   2      2.2825281740876711      3.4237922611319989      4.6012773038999999
   170   2      2.2825281740876711      3.4237922611319989      8.8871649239000003
   171   4      2.2825281740876706      13.314747682180052      6.5681846658999996
   172   1      2.2825281740876706      13.314747682180052      4.0535167364999998
   173   1      2.2825281740876706      13.314747682180052      8.3394043564999993
   174   2      2.2825281740876719      23.205703103228032      4.6012773038999999
   175   2      2.2825281740876719      23.205703103228032      8.8871649239000003
   176   4      2.2825281740876715      33.096658524275874      6.5681846658999996
   177   1      2.2825281740876715      33.096658524275874      4.0535167364999998
   178   1      2.2825281740876715      33.096658524275874      8.3394043564999993
   179   2      2.2825281740876702      42.987613945323858      4.6012773038999999
   180   2      2.2825281740876702      42.987613945323858      8.8871649239000003
   181   4      2.2825281740876711      52.878569366371906      6.5681846658999996
   182   1      2.2825281740876711      52.878569366371906      4.0535167364999998
   183   1      2.2825281740876711      52.878569366371906      8.3394043564999993
   184   2      2.2825281740876715      62.769524787419819      4.6012773038999999
   185   2      2.2825281740876715      62.769524787419819      8.8871649239000003
   186   4      2.2825281740876728       72.66048020846786      6.5681846658999996
   187   1      2.2825281740876728       72.66048020846786      4.0535167364999998
   188   1      2.2825281740876728       72.66048020846786      8.3394043564999993
   189   1      2.3255876515000087      17.152258037575532      14.821690906400001
   190   4      2.3261629610519505      56.717001493896205      14.821690906400001
   191   1      2.3261629610519505      56.717001493896205      12.865340251399999
   192   1      2.3261629610519505      56.717001493896205      16.778041561400002
   193   3      2.4226971277763818      42.883850174670513      12.865340251399999
   194   3      2.4226971277763818      42.883850174670513      16.778041561400002
   195   1       2.423272437328742      3.3209502626070666      14.821690906400001
   196   4      2.5192312945013695      29.050698855444555      14.821690906400001
   197   1      2.5192312945013695      29.050698855444555      12.865340251399999
   198   1      2.5192312945013695      29.050698855444555      16.778041561400002
   199   1      2.5198066040533109      68.615442311764951      14.821690906400001
   200   3      2.6157654612259389      15.217547536218301      12.865340251399999
   201   3      2.6157654612259389      15.217547536218301      16.778041561400002
   202   1       2.616340770777883      54.782290992539259      14.821690906400001
   203   1      2.6629495364357569      1.5216854493919214      6.1894973934999999
   204   1      2.6629495364357569      11.412640870439903      6.1894973934999999
   205   1      2.6629495364357578      21.303596291487885      6.1894973934999999
   206   1      2.6629495364357574      31.194551712535866      6.1894973934999999
   207   1      2.6629495364357578      41.085507133583846      6.1894973934999999
   208   1      2.6629495364357583      50.976462554631823      6.1894973934999999
   209   1      2.6629495364357569      60.867417975679807      6.1894973934999999
   210   1      2.6629495364357596      70.758373396727791      6.1894973934999999
   211   1      2.7128749375025927      40.949139673313006      14.821690906400001
   212   4      2.7134502470546726      1.3862397612498381      14.821690906400001
   213   1      2.7134502470546726      1.3862397612498381      12.865340251399999
   214   1      2.7134502470546726      1.3862397612498381      16.778041561400002
   215   1      2.8094091042273019       27.11598835408704      14.821690906400001
   216   3      2.8099844137792416      66.680731810408005      12.865340251399999
   217   3      2.8099844137792416      66.680731810408005      16.778041561400002
   218   1      2.9059432709518704      13.282837034861355      14.821690906400001
   219   4      2.9065185805038132      52.847580491182029      14.821690906400001
   220   1      2.9065185805038132      52.847580491182029      12.865340251399999
   221   1      2.9065185805038132      52.847580491182029      16.778041561400002
   222   3      3.0030527472282413      39.014429171956344      12.865340251399999
   223   3      3.0030527472282413      39.014429171956344      16.778041561400002
   224   1      3.0036280567808862      78.579172628276737      14.821690906400001
   225   4      3.0433708987835604      29.292444900796141      6.5681846658999996
   226   1      3.0433708987835604      29.292444900796141      4.0535167364999998
   227   1      3.0433708987835604      29.292444900796141      8.3394043564999993
   228   4      3.0433708987837025      9.5105340586999656      6.5681846658999996
   229   1      3.0433708987837025      9.5105340586999656      4.0535167364999998
   230   1      3.0433708987837025      9.5105340586999656      8.3394043564999993
   231   2      3.0433708987837034      19.401489479747877      4.6012773038999999
   232   2      3.0433708987837034      19.401489479747877      8.8871649239000003
   233   2      3.0433708987837034      39.183400321843841      4.6012773038999999
   234   2      3.0433708987837034      39.183400321843841      8.8871649239000003
   235   4      3.0433708987837025      49.074355742891925      6.5681846658999996
   236   1      3.0433708987837025      49.074355742891925      4.0535167364999998
   237   1      3.0433708987837025      49.074355742891925      8.3394043564999993
   238   2      3.0433708987837047      58.965311163939838      4.6012773038999999
   239   2      3.0433708987837047      58.965311163939838      8.8871649239000003
   240   4      3.0433708987837016      68.856266584987793      6.5681846658999996
   241   1      3.0433708987837016      68.856266584987793      4.0535167364999998
   242   1      3.0433708987837016      68.856266584987793      8.3394043564999993
   243   2      3.0433708987836985       78.74722200603577      4.6012773038999999
   244   2      3.0433708987836985       78.74722200603577      8.8871649239000003
   245   4      3.0995869139532326      25.181277852730094      14.821690906400001
   246   1      3.0995869139532326      25.181277852730094      12.865340251399999
   247   1      3.0995869139532326      25.181277852730094      16.778041561400002
   248   1      3.1001622235053143      64.746021309051059      14.821690906400001
   249   3      3.1961210806776621      11.348126533504407      12.865340251399999
   250   3      3.1961210806776621      11.348126533504407      16.778041561400002
   251   1      3.1966963902300241      50.912869989824799      14.821690906400001
   252   1      3.2932305569545934      37.079718670599121      14.821690906400001
   253   4      3.2938058665068146      76.644462126919521      14.821690906400001
   254   1      3.2938058665068146      76.644462126919521      12.865340251399999
   255   1      3.2938058665068146      76.644462126919521      16.778041561400002
   256   1      3.3897647236793031      23.246567351373148      14.821690906400001
   257   3      3.3903400332313871      62.811310807693822      12.865340251399999
   258   3      3.3903400332313871      62.811310807693822      16.778041561400002
   259   1      3.4237922611316476      7.6084272469600283      6.1894973934999999
   260   1       3.423792261131648       17.49938266800801      6.1894973934999999
   261   1      3.4237922611316485      27.390338089055923      6.1894973934999999
   262   1      3.4237922611316471      37.281293510103971      6.1894973934999999
   263   1      3.4237922611316494      47.172248931151877      6.1894973934999999
   264   1       3.423792261131648      57.063204352199861      6.1894973934999999
   265   1      3.4237922611316471       66.95415977324798      6.1894973934999999
   266   1      3.4237922611316507      76.845115194295829      6.1894973934999999
   267   1      3.4862988904040138      9.4134160321468983      14.821690906400001
   268   4      3.4868741999559538       48.97815948846786      14.821690906400001
   269   1      3.4868741999559538       48.97815948846786      12.865340251399999
   270   1      3.4868741999559538       48.97815948846786      16.778041561400002
   271   3      3.5834083666805268      35.145008169241883      12.865340251399999
   272   3      3.5834083666805268      35.145008169241883      16.778041561400002
   273   1      3.5839836762327502      74.709751625562561      14.821690906400001
   274   4      3.6799425334052351      21.311856850015921      14.821690906400001
   275   1      3.6799425334052351      21.311856850015921      12.865340251399999
   276   1      3.6799425334052351      21.311856850015921      16.778041561400002
   277   1      3.6805178429574572      60.876600306336314      14.821690906400001
   278   3      3.7764767001298032      7.4787055307899513      12.865340251399999
   279   3      3.7764767001298032      7.4787055307899513      16.778041561400002
   280   1      3.7770520096818867      47.043448987110622      14.821690906400001
   281   4      3.8042136234797335      5.7063204352198813      6.5681846658999996
   282   1      3.8042136234797335      5.7063204352198813      4.0535167364999998
   283   1      3.8042136234797335      5.7063204352198813      8.3394043564999993
   284   2       3.804213623479733      15.597275856267862      4.6012773038999999
   285   2       3.804213623479733      15.597275856267862      8.8871649239000003
   286   4      3.8042136234797326      25.488231277315844      6.5681846658999996
   287   1      3.8042136234797326      25.488231277315844      4.0535167364999998
   288   1      3.8042136234797326      25.488231277315844      8.3394043564999993
   289   2      3.8042136234797348      35.379186698363895      4.6012773038999999
   290   2      3.8042136234797348      35.379186698363895      8.8871649239000003
   291   4      3.8042136234797335      45.270142119411808      6.5681846658999996
   292   1      3.8042136234797335      45.270142119411808      4.0535167364999998
   293   1      3.8042136234797335      45.270142119411808      8.3394043564999993
   294   2      3.8042136234797339      55.161097540459785      4.6012773038999999
   295   2      3.8042136234797339      55.161097540459785      8.8871649239000003
   296   4      3.8042136234797348      65.052052961507769      6.5681846658999996
   297   1      3.8042136234797348      65.052052961507769      4.0535167364999998
   298   1      3.8042136234797348      65.052052961507769      8.3394043564999993
   299   2      3.8042136234797304       74.94300838255576      4.6012773038999999
   300   2      3.8042136234797304       74.94300838255576      8.8871649239000003
   301   1      3.8735861764065973      33.210297667884667      14.821690906400001
   302   4       3.874161485958679       72.77504112420533      14.821690906400001
   303   1       3.874161485958679       72.77504112420533      12.865340251399999
   304   1       3.874161485958679       72.77504112420533      16.778041561400002
   305   1      3.9701203431311649      19.377146348658691      14.821690906400001
   306   3       3.970695652683391      58.941889804979361      12.865340251399999
   307   3       3.970695652683391      58.941889804979361      16.778041561400002
   308   1      4.0666545098558755      5.5439950294327218      14.821690906400001
   309   4      4.0672298194078191      45.108738485753676      14.821690906400001
   310   1      4.0672298194078191      45.108738485753676      12.865340251399999
   311   1      4.0672298194078191      45.108738485753676      16.778041561400002
   312   3      4.1637639861323859      31.275587166527714      12.865340251399999
   313   3      4.1637639861323859      31.275587166527714      16.778041561400002
   314   1       4.164339295684611      70.840330622848384      14.821690906400001
   315   1      4.1846349858275387      3.8042136234802957      6.1894973934999999
   316   1       4.184634985827679      13.695169044527855      6.1894973934999999
   317   1      4.1846349858276799      23.586124465575978      6.1894973934999999
   318   1       4.184634985827679      33.477079886624097      6.1894973934999999
   319   1      4.1846349858276799      43.368035307671946      6.1894973934999999
   320   1      4.1846349858276781      53.258990728720065      6.1894973934999999
   321   1      4.1846349858276772      63.149946149767906      6.1894973934999999
   322   1       4.184634985827679       73.04090157081589      6.1894973934999999
   323   4      4.2602981528570965      17.442435847301745      14.821690906400001
   324   1      4.2602981528570965      17.442435847301745      12.865340251399999
   325   1      4.2602981528570965      17.442435847301745      16.778041561400002
   326   1      4.2608734624093199      57.007179303622138      14.821690906400001
   327   1       4.357407629133748      43.174027984396453      14.821690906400001
   328   3      4.3579829386858302      3.6111280723329977      12.865340251399999
   329   3      4.3579829386858302      3.6111280723329977      16.778041561400002
   330   1      4.4539417958583174      29.340876665170764      14.821690906400001
   331   4      4.4545171054105399      68.905620121491168      14.821690906400001
   332   1      4.4545171054105399      68.905620121491168      12.865340251399999
   333   1      4.4545171054105399      68.905620121491168      16.778041561400002
   334   1      4.5504759625831683      15.507725345944234      14.821690906400001
   335   3      4.5510512721352523      55.072468802265192      12.865340251399999
   336   3      4.5510512721352523      55.072468802265192      16.778041561400002
   337   4      4.5650563481756246      1.9021068117402882      6.5681846658999996
   338   1      4.5650563481756246      1.9021068117402882      4.0535167364999998
   339   1      4.5650563481756246      1.9021068117402882      8.3394043564999993
   340   2      4.5650563481756246      11.793062232787989      4.6012773038999999
   341   2      4.5650563481756246      11.793062232787989      8.8871649239000003
   342   4      4.5650563481756254      21.684017653836108      6.5681846658999996
   343   1      4.5650563481756254      21.684017653836108      4.0535167364999998
   344   1      4.5650563481756254      21.684017653836108      8.3394043564999993
   345   2      4.5650563481756237      31.574973074884092      4.6012773038999999
   346   2      4.5650563481756237      31.574973074884092      8.8871649239000003
   347   4      4.5650563481756228      41.465928495931934      6.5681846658999996
   348   1      4.5650563481756228      41.465928495931934      4.0535167364999998
   349   1      4.5650563481756228      41.465928495931934      8.3394043564999993
   350   4      4.5650563481756254      61.247839338027958      6.5681846658999996
   351   1      4.5650563481756254      61.247839338027958      4.0535167364999998
   352   1      4.5650563481756254      61.247839338027958      8.3394043564999993
   353   2      4.5650563481757658      51.356883916979847      4.6012773038999999
   354   2      4.5650563481757658      51.356883916979847      8.8871649239000003
   355   2      4.5650563481757649      71.138794759075736      4.6012773038999999
   356   2      4.5650563481757649      71.138794759075736      8.8871649239000003
   357   4      4.6475854388596813      41.239317483039216      14.821690906400001