(written by ASE)

735 atoms
4 atom types

0.0      28.243564153167025  xlo xhi
0.0      28.243564153167025  ylo yhi
0.0      62.724524824900001  zlo zhi

Masses

     1      15.998999995884349 # O
     2      207.19999994669897 # Pb
     3      87.619999977460253 # Sr
     4      47.866999987686484 # Ti

Atoms # atomic

     1   1  0.00019755734296301154      22.322582543765012      14.821690906400001
     2   4  0.00046006796690844804      26.735762636696649      14.821690906400001
     3   1  0.00046006796690844804      26.735762636696649      12.865340251399999
     4   1  0.00046006796690844804      26.735762636696649      16.778041561400002
     5   3  0.00077268429792038264       1.132740966541524      12.865340251399999
     6   3  0.00077268429792038264       1.132740966541524      16.778041561400002
     7   1    0.001035194921867083      5.5459210594731321      14.821690906400001
     8   1   0.0013478112529280285       8.186463542484983      14.821690906400001
     9   4   0.0016103218768744704      12.599643635416642      14.821690906400001
    10   1   0.0016103218768744704      12.599643635416642      12.865340251399999
    11   1   0.0016103218768744704      12.599643635416642      16.778041561400002
    12   3   0.0019229382078334611      15.240186118428495      12.865340251399999
    13   3   0.0019229382078334611      15.240186118428495      16.778041561400002
    14   1   0.0021854488318303628      19.653366211360126      14.821690906400001
    15   1     0.13322435921299708      3.0641602619001627      6.1894973934999999
    16   2     0.13322435921299666      17.185942338483649      4.6012773038999999
    17   2     0.13322435921299666      17.185942338483649      8.8871649239000003
    18   1     0.39967307763909138      9.1924807857005639      6.1894973934999999
    19   4      0.3996730776390911      23.314262862284078      6.5681846658999996
    20   1      0.3996730776390911      23.314262862284078      4.0535167364999998
    21   1      0.3996730776390911      23.314262862284078      8.3394043564999993
    22   2     0.66612179606518618      1.1990192329174254      4.6012773038999999
    23   2     0.66612179606518618      1.1990192329174254      8.8871649239000003
    24   1     0.66612179606518584      15.320801309500938      6.1894973934999999
    25   4     0.68473916877632379       17.64690178736657      14.821690906400001
    26   1     0.68473916877632379       17.64690178736657      12.865340251399999
    27   1     0.68473916877632379       17.64690178736657      16.778041561400002
    28   1     0.68531429573133085       24.70062436331003      14.821690906400001
    29   4     0.71456327207929804      3.5130832939063938      14.821690906400001
    30   1     0.71456327207929804      3.5130832939063938      12.865340251399999
    31   1     0.71456327207929804      3.5130832939063938      16.778041561400002
    32   1      0.7151383990342548      10.566805869849853      14.821690906400001
    33   4      0.9325705144912807      7.3273397567178389      6.5681846658999996
    34   1      0.9325705144912807      7.3273397567178389      4.0535167364999998
    35   1      0.9325705144912807      7.3273397567178389      8.3394043564999993
    36   1     0.93257051449127981      21.449121833301312      6.1894973934999999
    37   1      1.0157450611496071    0.018699133815701763      14.821690906400001
    38   3      1.0646308523210535      6.4702708725061333      12.865340251399999
    39   3      1.0646308523210535      6.4702708725061333      16.778041561400002
    40   1      1.0652059792761104      13.523993448449643      14.821690906400001
    41   3      1.0657811062309679      20.577716024393105      12.865340251399999
    42   3      1.0657811062309679      20.577716024393105      16.778041561400002
    43   2      1.1990192329173746      13.455660280518227      4.6012773038999999
    44   2      1.1990192329173746      13.455660280518227      8.8871649239000003
    45   1      1.1990192329173754      27.577442357101738      6.1894973934999999
    46   4      1.4169989403826624      9.3987846017128884      14.821690906400001
    47   1      1.4169989403826624      9.3987846017128884      12.865340251399999
    48   1      1.4169989403826624      9.3987846017128884      16.778041561400002
    49   1      1.4462479167307043       16.45480768547624      14.821690906400001
    50   1      1.4654679513434699       5.462198727735089      6.1894973934999999
    51   4      1.4654679513434694      19.583980804318628      6.5681846658999996
    52   1      1.4654679513434694      19.583980804318628      4.0535167364999998
    53   1      1.4654679513434694      19.583980804318628      8.3394043564999993
    54   1      1.7319166697695643      11.590519251535513      6.1894973934999999
    55   2      1.7319166697695629      25.712301328118979      4.6012773038999999
    56   2      1.7319166697695629      25.712301328118979      8.8871649239000003
    57   4      1.7657686470933511      23.130101448116033      14.821690906400001
    58   1      1.7657686470933511      23.130101448116033      12.865340251399999
    59   1      1.7657686470933511      23.130101448116033      16.778041561400002
    60   1      1.7663437740483088      1.9402598708924663      14.821690906400001
    61   4      1.9983653881957091      3.5970576987523768      6.5681846658999996
    62   1      1.9983653881957091      3.5970576987523768      4.0535167364999998
    63   1      1.9983653881957091      3.5970576987523768      8.3394043564999993
    64   1      1.9983653881957073      17.718839775335891      6.1894973934999999
    65   1      2.2472103066010258      4.7059325350205254      14.821690906400001
    66   3      2.2477854335559324      11.759655110964086      12.865340251399999
    67   3      2.2477854335559324      11.759655110964086      16.778041561400002
    68   1      2.2483605605109394      18.813377686907597      14.821690906400001
    69   2      2.2648141066218037      9.7253782225527523      4.6012773038999999
    70   2      2.2648141066218037      9.7253782225527523      8.8871649239000003
    71   1      2.2648141066218028      23.847160299136288      6.1894973934999999
    72   3      2.2776095368588538      25.869400770670936      12.865340251399999
    73   3      2.2776095368588538      25.869400770670936      16.778041561400002
    74   1      2.5312628250479485      1.7319166697696147      6.1894973934999999
    75   4      2.5312628250479481      15.853698746353153      6.5681846658999996
    76   1      2.5312628250479481      15.853698746353153      4.0535167364999998
    77   1      2.5312628250479481      15.853698746353153      8.3394043564999993
    78   1      2.7977115434740427      7.8602371935700406      6.1894973934999999
    79   2      2.7977115434740418      21.982019270153554      4.6012773038999999
    80   2      2.7977115434740418      21.982019270153554      8.8871649239000003
    81   1      2.9425968318236526      7.3156656575294727      14.821690906400001
    82   4      2.9431719587786334      14.369388233472932      14.821690906400001
    83   1      2.9431719587786334      14.369388233472932      12.865340251399999
    84   1      2.9431719587786334      14.369388233472932      16.778041561400002
    85   1       2.943747085733603      21.423110809416496      14.821690906400001
    86   4      2.9443222126885993     0.23326923219292767      14.821690906400001
    87   1      2.9443222126885993     0.23326923219292767      12.865340251399999
    88   1      2.9443222126885993     0.23326923219292767      16.778041561400002
    89   1      3.0641602619001378      13.988557717370416      6.1894973934999999
    90   4      3.0641602619001356       28.11033979395393      6.5681846658999996
    91   1      3.0641602619001356       28.11033979395393      4.0535167364999998
    92   1      3.0641602619001356       28.11033979395393      8.3394043564999993
    93   2       3.330608980326232      5.9950961645872773      4.6012773038999999
    94   2       3.330608980326232      5.9950961645872773      8.8871649239000003
    95   1      3.3306089803262311      20.116878241170831      6.1894973934999999
    96   3      3.4297897608809222      2.9415941975349673      12.865340251399999
    97   3      3.4297897608809222      2.9415941975349673      16.778041561400002
    98   1      3.4590387372288891      9.9976172812982558      14.821690906400001
    99   3       3.459613864183845      17.051339857241818      12.865340251399999
   100   3       3.459613864183845      17.051339857241818      16.778041561400002
   101   1      3.4601889911387507      24.105062433185378      14.821690906400001
   102   4      3.5970576987523262      12.123416688387715      6.5681846658999996
   103   1      3.5970576987523262      12.123416688387715      4.0535167364999998
   104   1      3.5970576987523262      12.123416688387715      8.3394043564999993
   105   1      3.5970576987523257      26.245198764971217      6.1894973934999999
   106   1      3.8102565713805832      27.062250011785068      14.821690906400001
   107   4      3.8108316983354906      5.8724084345616001      14.821690906400001
   108   1      3.8108316983354906      5.8724084345616001      12.865340251399999
   109   1      3.8108316983354906      5.8724084345616001      16.778041561400002
   110   1      3.8114068252904478      12.926131010505111      14.821690906400001
   111   4      3.8119819522454041       19.97985358644857      14.821690906400001
   112   1      3.8119819522454041       19.97985358644857      12.865340251399999
   113   1      3.8119819522454041       19.97985358644857      16.778041561400002
   114   1      3.8635064171784208      4.1299551356045656      6.1894973934999999
   115   2      3.8635064171784221      18.251737212188079      4.6012773038999999
   116   2      3.8635064171784221      18.251737212188079      8.8871649239000003
   117   1       4.129955135604515       10.25827565940499      6.1894973934999999
   118   4       4.129955135604515      24.380057735988508      6.5681846658999996
   119   1       4.129955135604515      24.380057735988508      4.0535167364999998
   120   1       4.129955135604515      24.380057735988508      8.3394043564999993
   121   1      4.1614744055322292      15.883318589104901      14.821690906400001
   122   3      4.1907233818801695      22.939341672868252      12.865340251399999
   123   3      4.1907233818801695      22.939341672868252      16.778041561400002
   124   1      4.1912985088351267      1.7495000956447226      14.821690906400001
   125   3      4.1918736357901336      8.8032226715882089      12.865340251399999
   126   3      4.1918736357901336      8.8032226715882089      16.778041561400002
   127   2       4.396403854030611      2.2648141066219543      4.6012773038999999
   128   2       4.396403854030611      2.2648141066219543      8.8871649239000003
   129   1      4.3964038540306607      16.386596183205356      6.1894973934999999
   130   4      4.6628525724567549      8.3931346304222672      6.5681846658999996
   131   1      4.6628525724567549      8.3931346304222672      4.0535167364999998
   132   1      4.6628525724567549      8.3931346304222672      8.3394043564999993
   133   1      4.6628525724567549      22.514916707005742      6.1894973934999999
   134   1      4.9293012908828491     0.39967307763913895      6.1894973934999999
   135   2      4.9293012908828482      14.521455154222631      4.6012773038999999
   136   2      4.9293012908828482      14.521455154222631      8.8871649239000003
   137   4      4.9928360256603792      25.297911674299655      14.821690906400001
   138   1      4.9928360256603792      25.297911674299655      12.865340251399999
   139   1      4.9928360256603792      25.297911674299655      16.778041561400002
   140   1       4.993411152615387      4.1080700970760917      14.821690906400001
   141   4      5.0226601289633788       11.16409318083948      14.821690906400001
   142   1      5.0226601289633788       11.16409318083948      12.865340251399999
   143   1      5.0226601289633788       11.16409318083948      16.778041561400002
   144   1      5.0232352559183093       18.21781575678294      14.821690906400001
   145   3      5.0859067169201211     0.33721722988976316      12.865340251399999
   146   3      5.0859067169201211     0.33721722988976316      16.778041561400002
   147   1      5.1957500093089939      6.5279936014395172      6.1894973934999999
   148   4      5.1957500093089939      20.649775678023026      6.5681846658999996
   149   1      5.1957500093089939      20.649775678023026      4.0535167364999998
   150   1      5.1957500093089939      20.649775678023026      8.3394043564999993
   151   3      5.3727277092051846       14.12128075943917      12.865340251399999
   152   3      5.3727277092051846       14.12128075943917      16.778041561400002
   153   1      5.3733028361601409       21.17500333538268      14.821690906400001
   154   1      5.3744530900700065      7.0388843341026757      14.821690906400001
   155   2      5.4621987277350383      26.778096201823509      4.6012773038999999
   156   2      5.4621987277350383      26.778096201823509      8.8871649239000003
   157   1      5.4621987277350899      12.656314125239893      6.1894973934999999
   158   1      5.7245206703117866      9.9960719127024742      14.821690906400001
   159   4      5.7286474461611832      4.6628525724567798      6.5681846658999996
   160   1      5.7286474461611832      4.6628525724567798      4.0535167364999998
   161   1      5.7286474461611832      4.6628525724567798      8.3394043564999993
   162   1      5.7286474461611814      18.784634649040267      6.1894973934999999
   163   4      5.8845685989706125      16.860580081994073      14.821690906400001
   164   1      5.8845685989706125      16.860580081994073      12.865340251399999
   165   1      5.8845685989706125      16.860580081994073      16.778041561400002
   166   1      5.8851437259255706      23.914302657937583      14.821690906400001
   167   4      5.8857188528805269      2.7244610807140166      14.821690906400001
   168   1      5.8857188528805269      2.7244610807140166      12.865340251399999
   169   1      5.8857188528805269      2.7244610807140166      16.778041561400002
   170   2      5.9950961645872773      10.791173096257181      4.6012773038999999
   171   2      5.9950961645872773      10.791173096257181      8.8871649239000003
   172   1      5.9950961645872773      24.912955172840693      6.1894973934999999
   173   1      6.2615448830133724      2.7977115434740685      6.1894973934999999
   174   4      6.2615448830133715      16.919493620057558      6.5681846658999996
   175   1      6.2615448830133715      16.919493620057558      4.0535167364999998
   176   1      6.2615448830133715      16.919493620057558      8.3394043564999993
   177   1      6.5279936014394684      8.9260320672744182      6.1894973934999999
   178   2      6.5279936014394666      23.047814143857984      4.6012773038999999
   179   2      6.5279936014394666      23.047814143857984      8.8871649239000003
   180   3       6.555882290440012      19.410664997897126      12.865340251399999
   181   3       6.555882290440012      19.410664997897126      16.778041561400002
   182   1      6.5564574173950207      26.464387573840632      14.821690906400001
   183   3      6.5857063937429112      5.2768465044369455      12.865340251399999
   184   3      6.5857063937429112      5.2768465044369455      16.778041561400002
   185   1      6.5862815206978684      12.330569080380455      14.821690906400001
   186   4      6.7944423198655608      0.9325705144913311      6.5681846658999996
   187   1      6.7944423198655608      0.9325705144913311      4.0535167364999998
   188   1      6.7944423198655608      0.9325705144913311      8.3394043564999993
   189   1      6.7944423198655599      15.054352591074844      6.1894973934999999
   190   1      6.9374993548495141      1.1516376577001897      14.821690906400001
   191   2      7.0608910382916559      7.0608910382917562      4.6012773038999999
   192   2      7.0608910382916559      7.0608910382917562      8.8871649239000003
   193   1       7.060891038291655      21.182673114875271      6.1894973934999999
   194   4      7.0619719106559229      8.0998668673510235      14.821690906400001
   195   1      7.0619719106559229      8.0998668673510235      12.865340251399999
   196   1      7.0619719106559229      8.0998668673510235      16.778041561400002
   197   1      7.0625470376107788      15.153589443294534      14.821690906400001
   198   4      7.0631221645658346      22.207312019238046      14.821690906400001
   199   1      7.0631221645658346      22.207312019238046      12.865340251399999
   200   1      7.0631221645658346      22.207312019238046      16.778041561400002
   201   4      7.3273397567177998      13.189211562092131      6.5681846658999996
   202   1      7.3273397567177998      13.189211562092131      4.0535167364999998
   203   1      7.3273397567177998      13.189211562092131      8.3394043564999993
   204   1      7.3273397567177989      27.310993638675644      6.1894973934999999
   205   1      7.5937884751438958      5.1957500093090445      6.1894973934999999
   206   2      7.5937884751438958      19.317532085892562      4.6012773038999999
   207   2      7.5937884751438958      19.317532085892562      8.8871649239000003
   208   1      7.7671355941129194      17.648627168231339      14.821690906400001
   209   3      7.7677107210678518      24.702349744174899      12.865340251399999
   210   3      7.7677107210678518      24.702349744174899      16.778041561400002
   211   1      7.7682858480228596      3.5125081669513372      14.821690906400001
   212   3      7.7688609749777902      10.566230742894795      12.865340251399999
   213   3      7.7688609749777902      10.566230742894795      16.778041561400002
   214   4      7.8602371935699873      25.445852609692984      6.5681846658999996
   215   1      7.8602371935699873      25.445852609692984      4.0535167364999998
   216   1      7.8602371935699873      25.445852609692984      8.3394043564999993
   217   1      7.8602371935700157      11.324070533109445      6.1894973934999999
   218   4      8.0694676370930676    0.018124006860795495      14.821690906400001
   219   1      8.0694676370930676    0.018124006860795495      12.865340251399999
   220   1      8.0694676370930676    0.018124006860795495      16.778041561400002
   221   1      8.1183534282646139      6.4696957455511264      14.821690906400001
   222   4      8.1189285552195205      13.523418321494587      14.821690906400001
   223   1      8.1189285552195205      13.523418321494587      12.865340251399999
   224   1      8.1189285552195205      13.523418321494587      16.778041561400002
   225   1      8.1195036821744804      20.577140897438145      14.821690906400001
   226   1      8.1266859119960859      17.452391056909896      6.1894973934999999
   227   2      8.1266859119961108      3.3306089803263328      4.6012773038999999
   228   2      8.1266859119961108      3.3306089803263328      8.8871649239000003
   229   4      8.3931346304222281      9.4589295041266581      6.5681846658999996
   230   1      8.3931346304222281      9.4589295041266581      4.0535167364999998
   231   1      8.3931346304222281      9.4589295041266581      8.3394043564999993
   232   1      8.3931346304222298      23.580711580710172      6.1894973934999999
   233   1      8.4695712624163075      23.534328476037974      14.821690906400001
   234   3      8.4988202387642513      2.3467874066342618      12.865340251399999
   235   3      8.4988202387642513      2.3467874066342618      16.778041561400002
   236   1      8.4993953657192076      9.4005099825777716      14.821690906400001
   237   3      8.4999704926741657      16.454232558521284      12.865340251399999
   238   3      8.4999704926741657      16.454232558521284      16.778041561400002
   239   1       8.659583348848324      1.4654679513435205      6.1894973934999999
   240   2       8.659583348848324      15.587250027927034      4.6012773038999999
   241   2       8.659583348848324      15.587250027927034      8.8871649239000003
   242   1      8.9260320672744182      7.5937884751439206      6.1894973934999999
   243   4      8.9260320672744164      21.715570551727446      6.5681846658999996
   244   1      8.9260320672744164      21.715570551727446      4.0535167364999998
   245   1      8.9260320672744164      21.715570551727446      8.3394043564999993
   246   1      9.1924807857005106       13.72210899894432      6.1894973934999999
   247   2      9.1924807857005124      27.843891075527832      4.6012773038999999
   248   2      9.1924807857005124      27.843891075527832      8.8871649239000003
   249   4      9.3009328825444335      4.7053574080656189      14.821690906400001
   250   1      9.3009328825444335      4.7053574080656189      12.865340251399999
   251   1      9.3009328825444335      4.7053574080656189      16.778041561400002
   252   1      9.3015080094994431      11.759079984009128      14.821690906400001
   253   4      9.3307569858474331      18.815103067772466      14.821690906400001
   254   1      9.3307569858474331      18.815103067772466      12.865340251399999
   255   1      9.3307569858474331      18.815103067772466      16.778041561400002
   256   1      9.3313321128024143       25.86882564371593      14.821690906400001
   257   4      9.4589295041266066      5.7286474461612338      6.5681846658999996
   258   1      9.4589295041266066      5.7286474461612338      4.0535167364999998
   259   1      9.4589295041266066      5.7286474461612338      8.3394043564999993
   260   1      9.4589295041266084      19.850429522744744      6.1894973934999999
   261   1      9.6813996930441721     0.58244906914869132      14.821690906400001
   262   3      9.6819748199990787      7.6361716450922268      12.865340251399999
   263   3      9.6819748199990787      7.6361716450922268      16.778041561400002
   264   1      9.6825499469541363      14.689894221035686      14.821690906400001
   265   3      9.6831250739090411      21.743616796979243      12.865340251399999
   266   3      9.6831250739090411      21.743616796979243      16.778041561400002
   267   2      9.7253782225527008      11.856967969961635      4.6012773038999999
   268   2      9.7253782225527008      11.856967969961635      8.8871649239000003
   269   1      9.7253782225527008       25.97875004654512      6.1894973934999999
   270   1      9.9918269409788465      3.8635064171784967      6.1894973934999999
   271   4      9.9918269409788447      17.985288493761981      6.5681846658999996
   272   1      9.9918269409788447      17.985288493761981      4.0535167364999998
   273   1      9.9918269409788447      17.985288493761981      8.3394043564999993
   274   1      10.258275659404942       9.991826940978898      6.1894973934999999
   275   2      10.258275659404941       24.11360901756241      4.6012773038999999
   276   2      10.258275659404941       24.11360901756241      8.8871649239000003
   277   4      10.512761313172374      9.9970421543432977      14.821690906400001
   278   1      10.512761313172374      9.9970421543432977      12.865340251399999
   279   1      10.512761313172374      9.9970421543432977      16.778041561400002
   280   1      10.513336440127306      17.050764730286861      14.821690906400001
   281   4      10.513911567082262      24.104487306230322      14.821690906400001
   282   1      10.513911567082262      24.104487306230322      12.865340251399999
   283   1      10.513911567082262      24.104487306230322      16.778041561400002
   284   1      10.514486694037245      2.9146457290068533      14.821690906400001
   285   4      10.524724377831037      1.9983653881957602      6.5681846658999996
   286   1      10.524724377831037      1.9983653881957602      4.0535167364999998
   287   1      10.524724377831037      1.9983653881957602      8.3394043564999993
   288   1      10.524724377831035      16.120147464779297      6.1894973934999999
   289   2      10.791173096257131      8.1266859119961854      4.6012773038999999
   290   2      10.791173096257131      8.1266859119961854      8.8871649239000003
   291   1      10.791173096257131      22.248467988579748      6.1894973934999999
   292   3      10.863979147324095      27.061674884830158      12.865340251399999
   293   3      10.863979147324095      27.061674884830158      16.778041561400002
   294   1      10.864554274279001      5.8718333076066438      14.821690906400001
   295   3      10.893803250626991      12.927856391370032      12.865340251399999
   296   3      10.893803250626991      12.927856391370032      16.778041561400002
   297   1      10.894378377581948      19.981578967313492      14.821690906400001
   298   1      11.057621814683225     0.13322435921309836      6.1894973934999999
   299   4      11.057621814683248      14.255006435796611      6.5681846658999996
   300   1      11.057621814683248      14.255006435796611      4.0535167364999998
   301   1      11.057621814683248      14.255006435796611      8.3394043564999993
   302   4      11.181922116443047      15.937790653116092      14.821690906400001
   303   1      11.181922116443047      15.937790653116092      12.865340251399999
   304   1      11.181922116443047      15.937790653116092      16.778041561400002
   305   1      11.244445957823681      22.938766545913257      14.821690906400001
   306   4      11.245021084778687       1.748924968689741      14.821690906400001
   307   1      11.245021084778687       1.748924968689741      12.865340251399999
   308   1      11.245021084778687       1.748924968689741      16.778041561400002
   309   1      11.245596211733593      8.8026475446332277      14.821690906400001
   310   2      11.324070533109317      20.383326959596985      4.6012773038999999
   311   2      11.324070533109317      20.383326959596985      8.8871649239000003
   312   1      11.324070533109371      6.2615448830134106      6.1894973934999999
   313   4      11.590519251535413      26.511647483397461      6.5681846658999996
   314   1      11.590519251535413      26.511647483397461      4.0535167364999998
   315   1      11.590519251535413      26.511647483397461      8.3394043564999993
   316   1      11.590519251535461      12.389865406813797      6.1894973934999999
   317   1      11.856967969961508      18.518185930614326      6.1894973934999999
   318   2      11.856967969961559      4.3964038540306865      4.6012773038999999
   319   2      11.856967969961559      4.3964038540306865      8.8871649239000003
   320   1      12.075232450996976      25.299637055164428      14.821690906400001
   321   3      12.075807577951881      4.1097954779409633      12.865340251399999
   322   3      12.075807577951881      4.1097954779409633      16.778041561400002
   323   1      12.076382704906889      11.163518053884424      14.821690906400001
   324   3       12.07695783186182      18.217240629827881      12.865340251399999
   325   3       12.07695783186182      18.217240629827881      16.778041561400002
   326   4      12.123416688387652      10.524724377831086      6.5681846658999996
   327   1      12.123416688387652      10.524724377831086      4.0535167364999998
   328   1      12.123416688387652      10.524724377831086      8.3394043564999993
   329   1       12.12341668838765      24.646506454414595      6.1894973934999999
   330   1      12.166002634436838     0.36761646014761878      14.821690906400001
   331   1      12.389865406813747      2.5312628250479738      6.1894973934999999
   332   2      12.389865406813746      16.653044901631471      4.6012773038999999
   333   2      12.389865406813746      16.653044901631471      8.8871649239000003
   334   1      12.426450285148695      14.120705632484214      14.821690906400001
   335   4      12.427025412103553      21.174428208427674      14.821690906400001
   336   1      12.427025412103553      21.174428208427674      12.865340251399999
   337   1      12.427025412103553      21.174428208427674      16.778041561400002
   338   4      12.428175666013516      7.0383092071476678      14.821690906400001
   339   1      12.428175666013516      7.0383092071476678      12.865340251399999
   340   1      12.428175666013516      7.0383092071476678      16.778041561400002
   341   1      12.656314125239893      8.6595833488483507      6.1894973934999999
   342   4      12.656314125239893       22.78136542543184      6.5681846658999996
   343   1      12.656314125239893       22.78136542543184      4.0535167364999998
   344   1      12.656314125239893       22.78136542543184      8.3394043564999993
   345   1      12.777668119300291      2.9417742098040165      14.821690906400001
   346   3      12.806917095648332      9.9977972935673591      12.865340251399999
   347   3      12.806917095648332      9.9977972935673591      16.778041561400002
   348   1      12.807492222603289      17.051519869510813      14.821690906400001
   349   3      12.808067349558247      24.105242445454351      12.865340251399999
   350   3      12.808067349558247      24.105242445454351      16.778041561400002
   351   1      12.922762843665936       14.78790387264875      6.1894973934999999
   352   2      12.922762843665987     0.66612179606523636      4.6012773038999999
   353   2      12.922762843665987     0.66612179606523636      8.8871649239000003
   354   4      13.189211562092082      6.7944423198656381      6.5681846658999996
   355   1      13.189211562092082      6.7944423198656381      4.0535167364999998
   356   1      13.189211562092082      6.7944423198656381      8.3394043564999993
   357   1      13.189211562092082      20.916224396449124      6.1894973934999999