(written by ASE)

441 atoms
2 atom types

0.0      22.161996670048278  xlo xhi
0.0      19.192855065946002  ylo yhi
0.0      74.581211905000004  zlo zhi
     11.080998334972561                       0                       0  xy xz yz

Masses

     1      95.949999975317411 # Mo
     2      32.059999991752747 # S

Atoms # atomic

     1   1      10.017494447203134      17.214888795956099      27.564246663000002
     2   2      6.7669489020224409      11.563669130237692            15.273947823
     3   2      6.7669489020224409      11.563669130237692      18.427579864000002
     4   2      4.1382695543684802      6.7707488605476893      25.987737755000001
     5   2      4.1382695543684802      6.7707488605476893      29.141369796000003
     6   1       1.791227972542389      2.6844423894005547      16.850456731000001
     7   1      3.4597461260316811      5.0734596273189076      27.564246663000002
     8   2      2.9218615135724733      4.1207057983663491            15.273947823
     9   2      2.9218615135724733      4.1207057983663491      18.427579864000002
    10   2      8.6615208372511319      13.820931202754698      25.987737755000001
    11   2      8.6615208372511319      13.820931202754698      29.141369796000003
    12   1      9.0282156695600992      14.434954922434278      16.850456731000001
    13   1      7.9829974089143141       12.12364196952595      27.564246663000002
    14   2      10.158849210590182      15.871218331399938            15.273947823
    15   2      10.158849210590182      15.871218331399938      18.427579864000002
    16   2        2.10270033798641       1.677637860790723      25.987737755000001
    17   2        2.10270033798641       1.677637860790723      29.141369796000003
    18   1      5.1842054663142889      6.9938531139636906      16.850456731000001
    19   1      12.505175244622173      19.173203693507944      27.564246663000002
    20   2      6.3148390073443732      8.4301165229294845            15.273947823
    21   2      6.3148390073443732      8.4301165229294845      18.427579864000002
    22   2      6.6259503517875373      8.7290637580994996      25.987737755000001
    23   2      6.6259503517875373      8.7290637580994996      29.141369796000003
    24   1      12.420116412836883       18.74374484803835      16.850456731000001
    25   1      5.8570991012093874      7.3115638897298929      6.1366667990000003
    26   1      12.189098149765154      18.278909641699066      6.1366667990000003
    27   1        9.02309862548727      12.795236765714444      6.1366667990000003
    28   1      2.6910995769315238       1.827891013745272      6.1366667990000003
    29   1      4.2740993390704567      4.5697274517375481      6.1366667990000003
    30   1      7.4400988633483589      10.053400327722169      6.1366667990000003
    31   1      10.606098387626222      15.537073203706724      6.1366667990000003
    32   1      5.9474269234507382      7.0317745248707171      27.564246663000002
    33   2      2.4697516188944859     0.98715319105814314            15.273947823
    34   2      2.4697516188944859     0.98715319105814314      18.427579864000002
    35   2      11.142772373355976       15.76433039504081      25.987737755000001
    36   2      11.142772373355976       15.76433039504081      29.141369796000003
    37   1      8.5761062095911935      11.302643039567831      16.850456731000001
    38   1      10.470678206333311      14.081956867077761      27.564246663000002
    39   2      9.7067397506212387      12.738906448533557            15.273947823
    40   2      9.7067397506212387      12.738906448533557      18.427579864000002
    41   2      4.5903811354055248      3.6359527583426003      25.987737755000001
    42   2      4.5903811354055248      3.6359527583426003      29.141369796000003
    43   1      4.7310188211413049      3.8596797076964884      16.850456731000001
    44   2      10.606098387711954      13.709182353171951      4.5601578910000002
    45   2      10.606098387711954      13.709182353171951      7.7137899320000001
    46   2       4.274099339156229      2.7418366012027793      4.5601578910000002
    47   2       4.274099339156229      2.7418366012027793      7.7137899320000001
    48   2      5.8570991012951614      5.4836730391950557      4.5601578910000002
    49   2      5.8570991012951614      5.4836730391950557      7.7137899320000001
    50   2      7.4400988634340912      8.2255094771873321      4.5601578910000002
    51   2      7.4400988634340912      8.2255094771873321      7.7137899320000001
    52   2      9.0230986255730237      10.967345915179608      4.5601578910000002
    53   2      9.0230986255730237      10.967345915179608      7.7137899320000001
    54   2      2.6910995770172974  1.6321043458049609e-07      4.5601578910000002
    55   2      2.6910995770172974  1.6321043458049609e-07      7.7137899320000001
    56   2      12.189098149850928      16.451018791164159      4.5601578910000002
    57   2      12.189098149850928      16.451018791164159      7.7137899320000001
    58   1      3.9118577070687466      1.9386635251137838      27.564246663000002
    59   2      5.8616523621713892      5.2959431166621469            15.273947823
    60   2      5.8616523621713892      5.2959431166621469      18.427579864000002
    61   2      9.1136311492065953      10.687378655651344      25.987737755000001
    62   2      9.1136311492065953      10.687378655651344      29.141369796000003
    63   1      11.968006518159013      15.610192240730075      16.850456731000001
    64   1      8.4351077208697962       8.990089422422594      27.564246663000002
    65   2      13.098640059189178      17.046455649695734            15.273947823
    66   2      13.098640059189178      17.046455649695734      18.427579864000002
    67   2      13.635808984914471       17.73694037963347      25.987737755000001
    68   2      13.635808984914471       17.73694037963347      29.141369796000003
    69   1      8.1239963149131658      8.1690904322595568      16.850456731000001
    70   1      12.957285556577691      16.039651146404651      27.564246663000002
    71   2      9.2546298559433673      9.6053538412252841            15.273947823
    72   2      9.2546298559433673      9.6053538412252841      18.427579864000002
    73   2      7.0780606637430576        5.59551121099621      25.987737755000001
    74   2      7.0780606637430576        5.59551121099621      29.141369796000003
    75   1      4.2789089264632381     0.72612710038814599      16.850456731000001
    76   1      6.3995372354062008      3.8982219777674616      27.564246663000002
    77   2      5.4095424674934804      2.1623905093539406            15.273947823
    78   2      5.4095424674934804      2.1623905093539406      18.427579864000002
    79   2      11.601311946625671      12.645693553203289      25.987737755000001
    80   2      11.601311946625671      12.645693553203289      29.141369796000003
    81   1      11.515896623481025      12.476639633421732      16.850456731000001
    82   1      10.922788518288833      10.948404319974438      27.564246663000002
    83   2      12.646530164511191      13.912903042387528            15.273947823
    84   2      12.646530164511191      13.912903042387528      18.427579864000002
    85   2       5.042491447361046     0.50240021123927747      25.987737755000001
    86   2       5.042491447361046     0.50240021123927747      29.141369796000003
    87   1      7.6718864202351762      5.0355378249512137      16.850456731000001
    88   1      7.4400988633630165      4.5697274517376174      6.1366667990000003
    89   1      13.772097911918802      15.537073203706724      6.1366667990000003
    90   1       5.857099101224124      1.8278910137452724      6.1366667990000003
    91   1       9.023098625502028      7.3115638897298938      6.1366667990000003
    92   1      10.606098387640959      10.053400327722169      6.1366667990000003
    93   1      12.189098149779891      12.795236765714446      6.1366667990000003
    94   1      15.355097674057793      18.278909641699066      6.1366667990000003
    95   1      15.444966353996771      17.997966043956431      27.564246663000002
    96   2      8.8025199612653413      6.4718012339170095            15.273947823
    97   2      8.8025199612653413      6.4718012339170095      18.427579864000002
    98   2      9.5603856470225974      7.5395310215073392      25.987737755000001
    99   2      9.5603856470225974      7.5395310215073392      29.141369796000003
   100   1      14.907797366757931      16.785429559025875      16.850456731000001
   101   1      8.8872180328252561      5.8565368753192368      27.564246663000002
   102   2      16.038430907787934      18.221692967991668            15.273947823
   103   2      16.038430907787934      18.221692967991668      18.427579864000002
   104   2      14.088992744044688      14.604008450755098      25.987737755000001
   105   2      14.088992744044688      14.604008450755098      29.141369796000003
   106   1      11.063787163512121      9.3443277505552871      16.850456731000001
   107   2      5.8570991013098581  1.6321043517094952e-07      4.5601578910000002
   108   2      5.8570991013098581  1.6321043517094952e-07      7.7137899320000001
   109   2      7.4400988634488296      2.7418366012027797      4.5601578910000002
   110   2      7.4400988634488296      2.7418366012027797      7.7137899320000001
   111   2      9.0230986255877603      5.4836730391950557      4.5601578910000002
   112   2      9.0230986255877603      5.4836730391950557      7.7137899320000001
   113   2      10.606098387726691      8.2255094771873303      4.5601578910000002
   114   2      10.606098387726691      8.2255094771873303      7.7137899320000001
   115   2      12.189098149865623      10.967345915179608      4.5601578910000002
   116   2      12.189098149865623      10.967345915179608      7.7137899320000001
   117   2      13.772097912004558      13.709182353171885      4.5601578910000002
   118   2      13.772097912004558      13.709182353171885      7.7137899320000001
   119   2      15.355097674143487      16.451018791164159      4.5601578910000002
   120   2      15.355097674143487      16.451018791164159      7.7137899320000001
   121   1      13.410469315707852      12.906719217526247      27.564246663000002
   122   2      12.194420704542283      10.780591159521082            15.273947823
   123   2      12.194420704542283      10.780591159521082      18.427579864000002
   124   2      7.5312444228732529      2.4625792821178707      25.987737755000001
   125   2      7.5312444228732529      2.4625792821178707      29.141369796000003
   126   1       7.218699775062233      1.9013644186839433      16.850456731000001
   127   1      6.8527209945363952     0.76529004888905428      27.564246663000002
   128   2      8.3493333160923946       3.337627827649738            15.273947823
   129   2      8.3493333160923946       3.337627827649738      18.427579864000002
   130   2      12.053422258581152       9.512141006099931      25.987737755000001
   131   2      12.053422258581152       9.512141006099931      29.141369796000003
   132   1       14.45568747207998      13.651876951717599      16.850456731000001
   133   1      11.374898830244293      7.8148517728711138      27.564246663000002
   134   2      15.586321013109986      15.088140360683392            15.273947823
   135   2      15.586321013109986      15.088140360683392      18.427579864000002
   136   2      16.575600094289047       16.56170273008199      25.987737755000001
   137   2      16.575600094289047       16.56170273008199      29.141369796000003
   138   1      10.611677268834132       6.210775143247079      16.850456731000001
   139   1      15.897076665952273      14.864413496853174      27.564246663000002
   140   2      11.742310809864216      7.6470385522128748            15.273947823
   141   2      11.742310809864216      7.6470385522128748      18.427579864000002
   142   2      10.017851773117536      4.4202735614447306      25.987737755000001
   143   2      10.017851773117536      4.4202735614447306      29.141369796000003
   144   1      17.847588215356925      17.960666877321671      16.850456731000001
   145   1      9.3393283447807374      2.7229843282159476      27.564246663000002
   146   2      7.8972234214143677     0.20407522034146383            15.273947823
   147   2      7.8972234214143677     0.20407522034146383      18.427579864000002
   148   2       14.54110305600015      11.470455903651809      25.987737755000001
   149   2       14.54110305600015      11.470455903651809      29.141369796000003
   150   1      14.003577577401993      10.518324344409256      16.850456731000001
   151   1      9.0230986255166847      1.8278910137453406      6.1366667990000003
   152   1      10.606098387655654      4.5697274517376174      6.1366667990000003
   153   1      12.189098149794589      7.3115638897298947      6.1366667990000003
   154   1      15.355097674072468      12.795236765714444      6.1366667990000003
   155   1      13.772097911933558      10.053400327722169      6.1366667990000003
   156   1      16.938097436211422      15.537073203706724      6.1366667990000003
   157   1      18.521097198350351      18.278909641698998      6.1366667990000003
   158   1      13.862579627663408      9.7731666704229898      27.564246663000002
   159   2      15.134211118432077      11.954587753375051            15.273947823
   160   2      15.134211118432077      11.954587753375051      18.427579864000002
   161   2      19.057923808487043      18.506966095694818      25.987737755000001
   162   2      19.057923808487043      18.506966095694818      29.141369796000003
   163   1      10.159567374156184      3.0772225359388052      16.850456731000001
   164   1       18.38582964146444       16.82459256773177      27.564246663000002
   165   2      11.290200915186269      4.5134859449045992            15.273947823
   166   2      11.290200915186269      4.5134859449045992      18.427579864000002
   167   2      12.505532570536573      6.3785884589966084      25.987737755000001
   168   2      12.505532570536573      6.3785884589966084      29.141369796000003
   169   1      17.395478320678777      14.827114270013466      16.850456731000001
   170   2      10.606098387741389      2.7418366012027784      4.5601578910000002
   171   2      10.606098387741389      2.7418366012027784      7.7137899320000001
   172   2       9.023098625602497  1.6321050237477861e-07      4.5601578910000002
   173   2       9.023098625602497  1.6321050237477861e-07      7.7137899320000001
   174   2       12.18909814988036      5.4836730391950557      4.5601578910000002
   175   2       12.18909814988036      5.4836730391950557      7.7137899320000001
   176   2      13.772097912019293      8.2255094771873321      4.5601578910000002
   177   2      13.772097912019293      8.2255094771873321      7.7137899320000001
   178   2      15.355097674158225       10.96734591517961      4.5601578910000002
   179   2      15.355097674158225       10.96734591517961      7.7137899320000001
   180   2      16.938097436297156      13.709182353171885      4.5601578910000002
   181   2      16.938097436297156      13.709182353171885      7.7137899320000001
   182   2      18.521097198436085      16.451018791164159      4.5601578910000002
   183   2      18.521097198436085      16.451018791164159      7.7137899320000001
   184   1      11.827009142199795      4.6812992257677903      27.564246663000002
   185   2      18.526111861709019      16.263377678979122            15.273947823
   186   2      18.526111861709019      16.263377678979122      18.427579864000002
   187   2      17.028783853419245      13.428770801203617      25.987737755000001
   188   2      17.028783853419245      13.428770801203617      29.141369796000003
   189   1      13.551468117433009      7.3860124615429452      16.850456731000001
   190   1      16.350260425082407      11.731481567974768      27.564246663000002
   191   2       14.68210165846317      8.8222758705087401            15.273947823
   192   2       14.68210165846317      8.8222758705087401      18.427579864000002
   193   2      10.471035532247772      1.2873416325663578      25.987737755000001
   194   2      10.471035532247772      1.2873416325663578      29.141369796000003
   195   1      20.787379063955839      19.135904195617467      16.850456731000001
   196   1      20.873510438883496      18.782907465283611      27.564246663000002
   197   2      10.837014270013283      1.3793125386372622            15.273947823
   198   2      10.837014270013283      1.3793125386372622      18.427579864000002
   199   2      14.993213367955613      8.3369033565484862      25.987737755000001
   200   2      14.993213367955613      8.3369033565484862      29.141369796000003
   201   1      16.943368426000827      11.693561662705189      16.850456731000001
   202   1       14.31468993961883      6.6396141233196682      27.564246663000002
   203   2      18.074001967030956      13.129825071670917            15.273947823
   204   2      18.074001967030956      13.129825071670917      18.427579864000002
   205   2      19.516463381756758      15.388329253857227      25.987737755000001
   206   2      19.516463381756758      15.388329253857227      29.141369796000003
   207   1        13.0993582227551       4.252459854234603      16.850456731000001
   208   1      18.837939953419902      13.691040020628412      27.564246663000002
   209   2      14.229991763785184      5.6887232632003979            15.273947823
   210   2      14.229991763785184      5.6887232632003979      18.427579864000002
   211   2      12.957642882492076      3.2450359118933192      25.987737755000001
   212   2      12.957642882492076      3.2450359118933192      29.141369796000003
   213   1      20.335269169277694      16.002351588309264      16.850456731000001
   214   1      12.189098149809324      1.8278910137453408      6.1366667990000003
   215   1      13.772097911948254      4.5697274517376165      6.1366667990000003
   216   1      15.355097674087226      7.3115638897298938      6.1366667990000003
   217   1      16.938097436226158      10.053400327722169      6.1366667990000003
   218   1      18.521097198365087      12.795236765714444      6.1366667990000003
   219   1       20.10409696050402      15.537073203706722      6.1366667990000003
   220   1      21.687096722642991      18.278909641699066      6.1366667990000003
   221   1      12.279119454155238      1.5477466786644691      27.564246663000002
   222   2      21.465902710307937      17.438614997275057            15.273947823
   223   2      21.465902710307937      17.438614997275057      18.427579864000002
   224   2      17.474464904060532      10.280302548834563      25.987737755000001
   225   2      17.474464904060532      10.280302548834563      29.141369796000003
   226   1      16.491258531322803      8.5600090553969146      16.850456731000001
   227   1      16.802370737037926      8.5979290208715451      27.564246663000002
   228   2      17.621892072353081      9.9962724643626419            15.273947823
   229   2      17.621892072353081      9.9962724643626419      18.427579864000002
   230   2      22.004144179175796      17.346644151409105      25.987737755000001
   231   2      22.004144179175796      17.346644151409105      29.141369796000003
   232   1      12.647248328077071      1.1189072469263279      16.850456731000001
   233   2      12.189098149895056  1.6321050252114291e-07      4.5601578910000002
   234   2      12.189098149895056  1.6321050252114291e-07      7.7137899320000001
   235   2       15.35509767417296      5.4836730391950566      4.5601578910000002
   236   2       15.35509767417296      5.4836730391950566      7.7137899320000001
   237   2      18.521097198450821      10.967345915179608      4.5601578910000002
   238   2      18.521097198450821      10.967345915179608      7.7137899320000001
   239   2      13.772097912034068      2.7418366012027793      4.5601578910000002
   240   2      13.772097912034068      2.7418366012027793      7.7137899320000001
   241   2      16.938097436311931      8.2255094771873321      4.5601578910000002
   242   2      16.938097436311931      8.2255094771873321      7.7137899320000001
   243   2      20.104096960589796      13.709182353171887      4.5601578910000002
   244   2      20.104096960589796      13.709182353171887      7.7137899320000001
   245   2      21.687096722728725      16.451018791164159      4.5601578910000002
   246   2      21.687096722728725      16.451018791164159      7.7137899320000001
   247   1      21.325620750839015      15.649354918180288      27.564246663000002
   248   2      13.777881869107235      2.5551706558921228            15.273947823
   249   2      13.777881869107235      2.5551706558921228      18.427579864000002
   250   2      15.445323679911152      5.2033508094451291      25.987737755000001
   251   2      15.445323679911152      5.2033508094451291      29.141369796000003
   252   1      19.883159274599745      12.868798981000987      16.850456731000001
   253   1      14.766800251574294      3.5060615762163128      27.564246663000002
   254   2      21.013792815629909      14.305062389966784            15.273947823
   255   2      21.013792815629909      14.305062389966784      18.427579864000002
   256   2      19.968573693712198      12.254776706753903      25.987737755000001
   257   2      19.968573693712198      12.254776706753903      29.141369796000003
   258   1      16.039149071353936      5.4276971725305376      16.850456731000001
   259   1      19.290050265375402      10.557487473525123      27.564246663000002
   260   2        17.1697826123841      6.8639605814961966            15.273947823
   261   2        17.1697826123841      6.8639605814961966      18.427579864000002
   262   2      13.410826641622231     0.11210398301491172      25.987737755000001
   263   2      13.410826641622231     0.11210398301491172      29.141369796000003
   264   1      23.275060017876726      17.177588906605131      16.850456731000001
   265   1      23.813301548257993       17.60766981573213      27.564246663000002
   266   2      24.405693558906851      18.613852315570856            15.273947823
   267   2      24.405693558906851      18.613852315570856      18.427579864000002
   268   2      17.933004477330208      7.1616657069969714      25.987737755000001
   269   2      17.933004477330208      7.1616657069969714      29.141369796000003
   270   1      19.431049379921756      9.7352463736927817      16.850456731000001
   271   1      17.254481048993409      5.4643764737681888      27.564246663000002
   272   2       20.56168292095192      11.171509782658575            15.273947823
   273   2       20.56168292095192      11.171509782658575      18.427579864000002
   274   2      22.456254491131254      14.213091604305747      25.987737755000001
   275   2      22.456254491131254      14.213091604305747      29.141369796000003
   276   1      15.587039176675987      2.2941445652222625      16.850456731000001
   277   1      18.521097198379788      7.3115638897298947      6.1366667990000003
   278   1      15.355097674101962      1.8278910137453404      6.1366667990000003
   279   1      23.270096484796642      15.537073203706724      6.1366667990000003
   280   1       16.93809743624093      4.5697274517376165      6.1366667990000003
   281   1      20.104096960518795      10.053400327722169      6.1366667990000003
   282   1      21.687096722657728      12.795236765714446      6.1366667990000003
   283   1      24.853096246935593      18.278909641698998      6.1366667990000003
   284   1      21.777731062794459      12.515802371076967      27.564246663000002
   285   2      16.717672717706193       3.730407974187989            15.273947823
   286   2      16.717672717706193       3.730407974187989      18.427579864000002
   287   2      15.892078177727115      2.0555031753010233      25.987737755000001
   288   2      15.892078177727115      2.0555031753010233      29.141369796000003
   289   1      22.822950123198659      14.044036299296785      16.850456731000001
   290   1      15.218910563529795     0.37250902911305722      27.564246663000002
   291   2      23.953583664228784       15.48029970826251            15.273947823
   292   2      23.953583664228784       15.48029970826251      18.427579864000002
   293   2      20.420684005667681      9.1212241596506498      25.987737755000001
   294   2      20.420684005667681      9.1212241596506498      29.141369796000003
   295   1      18.978939485243885      6.6016937663843693      16.850456731000001
   296   2      20.104096960604533      8.2255094771873338      4.5601578910000002
   297   2      20.104096960604533      8.2255094771873338      7.7137899320000001
   298   2      24.853096247021323      16.451018791164159      4.5601578910000002
   299   2      24.853096247021323      16.451018791164159      7.7137899320000001
   300   2      15.355097674187736  1.6321043516594324e-07      4.5601578910000002
   301   2      15.355097674187736  1.6321043516594324e-07      7.7137899320000001
   302   2      16.938097436326668      2.7418366012027118      4.5601578910000002
   303   2      16.938097436326668      2.7418366012027118      7.7137899320000001
   304   2      18.521097198465618      5.4836730391950219      4.5601578910000002
   305   2      18.521097198465618      5.4836730391950219      7.7137899320000001
   306   2      21.687096722743501      10.967345915179608      4.5601578910000002
   307   2      21.687096722743501      10.967345915179608      7.7137899320000001
   308   2      23.270096484882433      13.709182353171883      4.5601578910000002
   309   2      23.270096484882433      13.709182353171883      7.7137899320000001
   310   1      19.742160577330903      7.4239349264218006      27.564246663000002
   311   2      20.109573026274052      8.0379571753501651            15.273947823
   312   2      20.109573026274052      8.0379571753501651      18.427579864000002
   313   2      24.943935288550353       16.17140650185766      25.987737755000001
   314   2      24.943935288550353       16.17140650185766      29.141369796000003
   315   1      26.215927616970561      18.353447023859921      16.850456731000001
   316   1      24.265411860213515      14.474117268628808      27.564246663000002
   317   2      16.265562823028084     0.59685536687971419            15.273947823
   318   2      16.265562823028084     0.59685536687971419      18.427579864000002
   319   2      18.385114789285709      4.0281131598936835      25.987737755000001
   320   2      18.385114789285709      4.0281131598936835      29.141369796000003
   321   1      22.370840228520596      10.910483691988578      16.850456731000001
   322   1       17.70659136094887       2.330823926664833      27.564246663000002
   323   2      23.501473769550756      12.346747100954374            15.273947823
   324   2      23.501473769550756      12.346747100954374      18.427579864000002
   325   2      22.908364803086737       11.07953905720246      25.987737755000001
   326   2      22.908364803086737       11.07953905720246      29.141369796000003
   327   1      18.526830025274904      3.4693818835180603      16.850456731000001
   328   1      22.229841374749938      9.3822498239736074      27.564246663000002
   329   2      19.657463566305104      4.9056452924837863            15.273947823
   330   2      19.657463566305104      4.9056452924837863      18.427579864000002
   331   2      27.431616085969345      18.129721399409469      25.987737755000001
   332   2      27.431616085969345      18.129721399409469      29.141369796000003
   333   1      25.762740971797534       15.21927361759265      16.850456731000001
   334   1      26.753092657632571       16.43243216618065      27.564246663000002
   335   2      26.893374512827702      16.655537026558449            15.273947823
   336   2      26.893374512827702      16.655537026558449      18.427579864000002
   337   2      20.872795586704687      5.9864280574455266      25.987737755000001
   338   2      20.872795586704687      5.9864280574455266      29.141369796000003
   339   1      21.917653583347764      7.7763102857212401      16.850456731000001
   340   1      20.104096960533454      4.5697274517376192      6.1366667990000003
   341   1      18.521097198394564      1.8278910137453424      6.1366667990000003
   342   1      26.436096009089258      15.537073203706791      6.1366667990000003
   343   1      21.687096722672447      7.3115638897298947      6.1366667990000003
   344   1      24.853096246950308      12.795236765714444      6.1366667990000003
   345   1      23.270096484811397      10.053400327722171      6.1366667990000003
   346   1      28.019095771228191      18.278909641698998      6.1366667990000003
   347   1      20.194272158367887      4.2891388242167441      27.564246663000002
   348   2       23.04828712437785       9.212573694687034            15.273947823
   349   2       23.04828712437785       9.212573694687034      18.427579864000002
   350   2      25.390689786366277      13.023558867713522      25.987737755000001
   351   2      25.390689786366277      13.023558867713522      29.141369796000003
   352   1      18.074720130596916      0.3358292762097162      16.850456731000001
   353   1      24.717522172168916      11.340564721525521      27.564246663000002
   354   2       19.20535367162708       1.772092685175513            15.273947823
   355   2       19.20535367162708       1.772092685175513      18.427579864000002
   356   2       18.83722510124117     0.89456061279036003      25.987737755000001
   357   2       18.83722510124117     0.89456061279036003      29.141369796000003