(written by ASE)

1953 atoms
2 atom types

0.0      46.638086863740952  xlo xhi
0.0      40.389771470903945  ylo yhi
0.0      74.581211905000004  zlo zhi
     23.319048587059815                       0                       0  xy xz yz

Masses

     1      95.949999975317411 # Mo
     2      32.059999991752747 # S

Atoms # atomic

     1   1      3.8820905597540727      6.7211820162378144      16.850456731000001
     2   1      16.022443065281458       27.70825188368805      6.1366667990000003
     3   2      1.5011645173602246      2.5175775262311775            15.273947823
     4   2      1.5011645173602246      2.5175775262311775      18.427579864000002
     5   1      4.4119446523086898       7.529647787279905      27.564246663000002
     6   2      15.162754673196137      26.095142826623665      4.5601578910000002
     7   2      15.162754673196137      26.095142826623665      7.7137899320000001
     8   2      5.3790874207523514      9.0807182722947388      25.987737755000001
     9   2      5.3790874207523514      9.0807182722947388      29.141369796000003
    10   1      20.092435070482303       34.46926249927612      16.850456731000001
    11   1          13.44337773625      22.868924426344641      6.1366667990000003
    12   2      17.728546082228505      30.250219409974441            15.273947823
    13   2      17.728546082228505      30.250219409974441      18.427579864000002
    14   1       7.313373109988329      12.182858955946092      27.564246663000002
    15   2      12.583689344164934      21.255815369280757      4.5601578910000002
    16   2      12.583689344164934      21.255815369280757      7.7137899320000001
    17   2      8.2805158784317427      13.733929440960784      25.987737755000001
    18   2      8.2805158784317427      13.733929440960784      29.141369796000003
    19   1      13.000768048290855      21.812132912116006      16.850456731000001
    20   1      10.864312407218609      18.029596969001343      6.1366667990000003
    21   2      10.636879060037138      17.593089822814463            15.273947823
    22   2      10.636879060037138      17.593089822814463      18.427579864000002
    23   1      10.214974616333748      16.836164082046022      27.564246663000002
    24   2      10.004624015133462      16.416487911937129      4.5601578910000002
    25   2      10.004624015133462      16.416487911937129      7.7137899320000001
    26   2      11.182117384777078      18.387234567060574      25.987737755000001
    27   2      11.182117384777078      18.387234567060574      29.141369796000003
    28   1      5.9091010260993224       9.155003324956029      16.850456731000001
    29   1      8.2852470781872469      13.190269511658043      6.1366667990000003
    30   2      3.5427785865470671      4.9373641474297081            15.273947823
    31   2      3.5427785865470671      4.9373641474297081      18.427579864000002
    32   1      13.116403074013306      21.489375250711781      27.564246663000002
    33   2      7.4255586861021339      11.577160454593939      4.5601578910000002
    34   2      7.4255586861021339      11.577160454593939      7.7137899320000001
    35   2        14.0835458424568      23.040445735726326      25.987737755000001
    36   2        14.0835458424568      23.040445735726326      29.141369796000003
    37   1      22.134049139669145      36.889049120475079      16.850456731000001
    38   1      5.7061817491558706        8.35094205431467      6.1366667990000003
    39   2      19.770160151415428      32.670006031173692            15.273947823
    40   2      19.770160151415428      32.670006031173692      18.427579864000002
    41   1      16.017831531692366      26.142586419377821      27.564246663000002
    42   2      4.8464933570705773      6.7378329972503153      4.5601578910000002
    43   2      4.8464933570705773      6.7378329972503153      7.7137899320000001
    44   2      16.984974300136354       27.69365690439237      25.987737755000001
    45   2      16.984974300136354       27.69365690439237      29.141369796000003
    46   1      15.042382117477699      24.231919533314681      16.850456731000001
    47   1      3.1271164201245831      3.5116145969716563      6.1366667990000003
    48   2      12.678493129223817      20.012876444013425            15.273947823
    49   2      12.678493129223817      20.012876444013425      18.427579864000002
    50   1       18.91925998937209      30.795797588043573      27.564246663000002
    51   2      2.2674280280393937      1.8985055399074093      4.5601578910000002
    52   2      2.2674280280393937      1.8985055399074093      7.7137899320000001
    53   2       19.88640275781583      32.346868073058268      25.987737755000001
    54   2       19.88640275781583      32.346868073058268      29.141369796000003
    55   1      7.9507150952861654      11.574789946154706      16.850456731000001
    56   1      23.867099678152982      39.062058610532276      6.1366667990000003
    57   2      5.5868261070324499      7.3557468568534548            15.273947823
    58   2      5.5868261070324499      7.3557468568534548      18.427579864000002
    59   1      21.820688447326233      35.448820842718874      27.564246663000002
    60   2      23.007411286067711      37.448949553467884      4.5601578910000002
    61   2      23.007411286067711      37.448949553467884      7.7137899320000001
    62   2       22.78783121576998      36.999891327733565      25.987737755000001
    63   2       22.78783121576998      36.999891327733565      29.141369796000003
    64   1      24.175663208856072      39.308835741673754      16.850456731000001
    65   1       21.28803434912145      34.222731153188619      6.1366667990000003
    66   2      21.811774220602359       35.08979265237236            15.273947823
    67   2      21.811774220602359       35.08979265237236      18.427579864000002
    68   1      24.722116905005624      40.102032011384914      27.564246663000002
    69   2      20.428345957036196      32.609622096124326      4.5601578910000002
    70   2      20.428345957036196      32.609622096124326      7.7137899320000001
    71   2      2.3702110863894732      1.2633310254955152      25.987737755000001
    72   2      2.3702110863894732      1.2633310254955152      29.141369796000003
    73   1      17.083996186664461      26.651706154513644      16.850456731000001
    74   1      18.708969020090056      29.383403695845313      6.1366667990000003
    75   2      14.720107198410824        22.4326630652121            15.273947823
    76   2      14.720107198410824        22.4326630652121      18.427579864000002
    77   1      4.3044967756255357       4.365471709146723      27.564246663000002
    78   2      17.849280628004909      27.770294638781351      4.5601578910000002
    79   2      17.849280628004909      27.770294638781351      7.7137899320000001
    80   2      5.2716395440688641      5.9165421941612717      25.987737755000001
    81   2      5.2716395440688641      5.9165421941612717      29.141369796000003
    82   1      9.9923291644730075      13.994576567353237      16.850456731000001
    83   1        16.1299036910588       24.54407623850226      6.1366667990000003
    84   2      7.6284401762192076      9.7755334780521306            15.273947823
    85   2      7.6284401762192076      9.7755334780521306      18.427579864000002
    86   1      7.2059252333048427      9.0186828778126227      27.564246663000002
    87   2      15.270215298973476      22.930967181437872      4.5601578910000002
    88   2      15.270215298973476      22.930967181437872      7.7137899320000001
    89   2      8.1730680017485025      10.569753362827457      25.987737755000001
    90   2      8.1730680017485025      10.569753362827457      29.141369796000003
    91   1      2.8982286909830193      1.3388508919683364      16.850456731000001
    92   1      13.550838362027381      19.704748781158923      6.1366667990000003
    93   2      23.853388289789027      37.509579273571326            15.273947823
    94   2      23.853388289789027      37.509579273571326      18.427579864000002
    95   1        10.1073536909844      13.671894046478377      27.564246663000002
    96   2      12.691149969941964      18.091639724094321      4.5601578910000002
    97   2      12.691149969941964      18.091639724094321      7.7137899320000001
    98   2      11.074496459428227      15.222964531493213      25.987737755000001
    99   2      11.074496459428227      15.222964531493213      29.141369796000003
   100   1      19.125610255851381      29.071492775712173      16.850456731000001
   101   1       10.97177303299595      14.865421323815516      6.1366667990000003
   102   2      16.761721267597665      24.852449686410633            15.273947823
   103   2      16.761721267597665      24.852449686410633      18.427579864000002
   104   1       13.00895519732982      18.325199172578309      27.564246663000002
   105   2      10.112084640910552      13.252312266750984      4.5601578910000002
   106   2      10.112084640910552      13.252312266750984      7.7137899320000001
   107   2      13.976097965773478      19.876269657593141      25.987737755000001
   108   2      13.976097965773478      19.876269657593141      29.141369796000003
   109   1      12.033943233659933      16.414363188551913      16.850456731000001
   110   1      8.3927077039644562      10.026093866471966      6.1366667990000003
   111   2      9.6700542454059679      12.195320099250804            15.273947823
   112   2      9.6700542454059679      12.195320099250804      18.427579864000002
   113   1      15.910383655009042      22.978410341244352      27.564246663000002
   114   2      7.5330193118791824      8.4129848094077158      4.5601578910000002
   115   2      7.5330193118791824      8.4129848094077158      7.7137899320000001
   116   2      16.877526423453034      24.529480826259185      25.987737755000001
   117   2      16.877526423453034      24.529480826259185      29.141369796000003
   118   1      4.9422762114683181      3.7572336013919401      16.850456731000001
   119   1      5.8136423749330426      5.1867664091286283      6.1366667990000003
   120   2      25.895002358975958      39.929365894769717            15.273947823
   121   2      25.895002358975958      39.929365894769717      18.427579864000002
   122   1      18.811812112688681       27.63162150991025      27.564246663000002
   123   2      4.9539539828477714      3.5736573520642376      4.5601578910000002
   124   2      4.9539539828477714      3.5736573520642376      7.7137899320000001
   125   2       19.77895488113251      29.182691994925086      25.987737755000001
   126   2       19.77895488113251      29.182691994925086      29.141369796000003
   127   1      21.167224325038227      31.491279396910986      16.850456731000001
   128   1      3.2345770459017462     0.34743895178557888      6.1366667990000003
   129   2      18.803335336784425      27.272236307609592            15.273947823
   130   2      18.803335336784425      27.272236307609592      18.427579864000002
   131   1      21.713240570368072      32.284832678576294      27.564246663000002
   132   2      25.693937240876174      39.124101365624995      4.5601578910000002
   133   2      25.693937240876174      39.124101365624995      7.7137899320000001
   134   2      22.680383338811733      33.835903163590842      25.987737755000001
   135   2      22.680383338811733      33.835903163590842      29.141369796000003
   136   1      14.075557302846692      18.834149809751015      16.850456731000001
   137   1      23.974560303930073      35.897882965346049      6.1366667990000003
   138   2      11.711668314592975      14.615106720449623            15.273947823
   139   2      11.711668314592975      14.615106720449623      18.427579864000002
   140   1        24.6146690283223       36.93785593325174      27.564246663000002
   141   2      23.114871911844801      34.284773908281736      4.5601578910000002
   142   2      23.114871911844801      34.284773908281736      7.7137899320000001
   143   2      25.581811796765717      38.488926418266431      25.987737755000001
   144   2      25.581811796765717      38.488926418266431      29.141369796000003
   145   1      6.9838902806550767      6.1770202225909019      16.850456731000001
   146   1      21.395494974898728      31.058555508002858      6.1366667990000003
   147   2      4.6175678411029875      1.9593810450645788            15.273947823
   148   2      4.6175678411029875      1.9593810450645788      18.427579864000002
   149   1      4.1970488989418824      1.2012956310135408      27.564246663000002
   150   2      20.535806582813372      29.445446450938359      4.5601578910000002
   151   2      20.535806582813372      29.445446450938359      7.7137899320000001
   152   2      5.1641916673852943      2.7523661160282322      25.987737755000001
   153   2      5.1641916673852943      2.7523661160282322      29.141369796000003
   154   1      23.208838394225069      33.911066018109807      16.850456731000001
   155   1      18.816429645867249      26.219228050659233      6.1366667990000003
   156   2      20.844949405971267      29.692022928808555            15.273947823
   157   2      20.844949405971267      29.692022928808555      18.427579864000002
   158   1      7.0984773566213564      5.8545067996797275      27.564246663000002
   159   2      17.956741253782091      24.606118993595132      4.5601578910000002
   160   2      17.956741253782091      24.606118993595132      7.7137899320000001
   161   2      8.0656201250651822      7.4055772846942753      25.987737755000001
   162   2      8.0656201250651822      7.4055772846942753      29.141369796000003
   163   1      16.117171372033535      21.253936430949548      16.850456731000001
   164   1      16.237364316835841      21.379900593315899      6.1366667990000003
   165   2      13.753282383779817      17.034893341648296            15.273947823
   166   2      13.753282383779817      17.034893341648296      18.427579864000002
   167   1       9.999905814300913      10.507717968345483      27.564246663000002
   168   2      15.377675924750527      19.766791536251652      4.5601578910000002
   169   2      15.377675924750527      19.766791536251652      7.7137899320000001
   170   2      10.967048582744738      12.058788453360032      25.987737755000001
   171   2      10.967048582744738      12.058788453360032      29.141369796000003
   172   1      9.0255043498420857      8.5968068437892899      16.850456731000001
   173   1      13.658298987804544      16.540573135972846      6.1366667990000003
   174   2      6.6616153615884519      4.3777637544880381            15.273947823
   175   2      6.6616153615884519      4.3777637544880381      18.427579864000002
   176   1       12.90150732064658       15.16102309444527      27.564246663000002
   177   2      12.798610595719355      14.927464078908601      4.5601578910000002
   178   2      12.798610595719355      14.927464078908601      7.7137899320000001
   179   2      13.868650089089993       16.71209357945996      25.987737755000001
   180   2      13.868650089089993       16.71209357945996      29.141369796000003
   181   1      25.250452463411992      36.330852639308198      16.850456731000001
   182   1      11.079233658773134      11.701245678629512      6.1366667990000003
   183   2      22.886563475158109      32.111809550007237            15.273947823
   184   2      22.886563475158109      32.111809550007237      18.427579864000002
   185   1      15.802935778325804      19.814234263111313      27.564246663000002
   186   2      10.219545266687861      10.088136621565122      4.5601578910000002
   187   2      10.219545266687861      10.088136621565122      7.7137899320000001
   188   2      16.770078546769302      21.365304748125862      25.987737755000001
   189   2      16.770078546769302      21.365304748125862      29.141369796000003
   190   1      18.158785441220378       23.67372305214851      16.850456731000001
   191   1      8.5001683297416086      6.8619182212858876      6.1366667990000003
   192   2      15.794896452966659      19.454679962846974            15.273947823
   193   2      15.794896452966659      19.454679962846974      18.427579864000002
   194   1      18.704364236005528      24.467445431777069      27.564246663000002
   195   2      7.6404799376564601      5.2488091642217842      4.5601578910000002
   196   2      7.6404799376564601      5.2488091642217842      7.7137899320000001
   197   2      19.671507004449023      26.018515916791618      25.987737755000001
   198   2      19.671507004449023      26.018515916791618      29.141369796000003
   199   1      11.067118419028844      11.016593464988109      16.850456731000001
   200   1       5.921103000710362       2.022590763942838      6.1366667990000003
   201   2      8.7032294307750462      6.7975503756868569            15.273947823
   202   2      8.7032294307750462      6.7975503756868569      18.427579864000002
   203   1      21.605792693684585      29.120656600443112      27.564246663000002
   204   2      5.0614146086250065      0.4094817068783756      4.5601578910000002
   205   2      5.0614146086250065      0.4094817068783756      7.7137899320000001
   206   2      22.572935462128413      30.671727085457945      25.987737755000001
   207   2      22.572935462128413      30.671727085457945      29.141369796000003
   208   1      27.292066532598586      38.750639260507157      16.850456731000001
   209   1      26.661086258738639      37.573034777503239      6.1366667990000003
   210   2      24.928177544345033      34.531596171205628            15.273947823
   211   2      24.928177544345033      34.531596171205628      18.427579864000002
   212   1      24.507221151638735      33.773679855118409      27.564246663000002
   213   2       25.80139786665351      35.959925720439209      4.5601578910000002
   214   2       25.80139786665351      35.959925720439209      7.7137899320000001
   215   2      25.474363920082645        35.3247503401331      25.987737755000001
   216   2      25.474363920082645        35.3247503401331      29.141369796000003
   217   1      20.200399510407216      26.093509673347182      16.850456731000001
   218   1      24.082020929707355      32.733707320160114      6.1366667990000003
   219   2      17.836510522153418      21.874466584045649            15.273947823
   220   2      17.836510522153418      21.874466584045649      18.427579864000002
   221   1      27.408649609318456      38.426891023784172      27.564246663000002
   222   2      23.222332537621998      31.120598263095658      4.5601578910000002
   223   2      23.222332537621998      31.120598263095658      7.7137899320000001
   224   2      28.375792377762199      39.977961508798863      25.987737755000001
   225   2      28.375792377762199      39.977961508798863      29.141369796000003
   226   1       13.10873248821577      13.436380086187068      16.850456731000001
   227   1      21.502955600675776      27.894379862816496      6.1366667990000003
   228   2      10.744843499961888      9.2173369968855301            15.273947823
   229   2      10.744843499961888      9.2173369968855301      18.427579864000002
   230   1      6.9910294799380344      2.6903307215462582      27.564246663000002
   231   2      20.643267208590693      26.281270805752534      4.5601578910000002
   232   2      20.643267208590693      26.281270805752534      7.7137899320000001
   233   2      7.9581722483815298      4.2414012065610933      25.987737755000001
   234   2      7.9581722483815298      4.2414012065610933      29.141369796000003
   235   1      6.0146334622510427     0.77784880236847376      16.850456731000001
   236   1      18.923890271644527      23.055052405473443      6.1366667990000003
   237   2      26.969791613531878       36.95138279240458            15.273947823
   238   2      26.969791613531878       36.95138279240458      18.427579864000002
   239   1      9.8924579376176744      7.3435418902121574      27.564246663000002
   240   2      18.064201879559281      21.441943348409197      4.5601578910000002
   241   2      18.064201879559281      21.441943348409197      7.7137899320000001
   242   2      10.859600706061004       8.894612375226993      25.987737755000001
   243   2      10.859600706061004       8.894612375226993      29.141369796000003
   244   1      22.242013579593976      28.513296294546144      16.850456731000001
   245   1      16.344824942613137      18.215724948130248      6.1366667990000003
   246   2       19.87812459134026      24.294253205244612            15.273947823
   247   2       19.87812459134026      24.294253205244612      18.427579864000002
   248   1      12.793886395297065      11.996753058877912      27.564246663000002
   249   2      15.485136550527949      16.602615891066002      4.5601578910000002
   250   2      15.485136550527949      16.602615891066002      7.7137899320000001
   251   2      13.761029163740726      13.547823543892751      25.987737755000001
   252   2      13.761029163740726      13.547823543892751      29.141369796000003
   253   1      15.150346557402528      15.856166707385887      16.850456731000001
   254   1      13.765759613581624      13.376397490786628      6.1366667990000003
   255   2      12.786457569148897      11.637123618084495            15.273947823
   256   2      12.786457569148897      11.637123618084495      18.427579864000002
   257   1       15.69548790164265      16.650058184977841      27.564246663000002
   258   2      12.906071221496589      11.763288433722664      4.5601578910000002
   259   2      12.906071221496589      11.763288433722664      7.7137899320000001
   260   2      16.662630670086145      18.201128669992677      25.987737755000001
   261   2      16.662630670086145      18.201128669992677      29.141369796000003
   262   1      8.0562475314378847       3.197635423567005      16.850456731000001
   263   1      11.186694284550317      8.5370700334435785      6.1366667990000003
   264   2      29.011405682718639      39.371169413603539            15.273947823
   265   2      29.011405682718639      39.371169413603539      18.427579864000002
   266   1      18.596916359322041      21.303269353643884      27.564246663000002
   267   2      10.327005892464939      6.9239609763788277      4.5601578910000002
   268   2      10.327005892464939      6.9239609763788277      7.7137899320000001
   269   2      19.564059127765535      22.854339838658717      25.987737755000001
   270   2      19.564059127765535      22.854339838658717      29.141369796000003
   271   1      24.283627648780818      30.933082915744681      16.850456731000001
   272   1       8.607628955518841      3.6977425760999538      6.1366667990000003
   273   2      21.919738660527102      26.714039826443141            15.273947823
   274   2      21.919738660527102      26.714039826443141      18.427579864000002
   275   1       21.49834481700168      25.956480522309786      27.564246663000002
   276   2      7.7479405634336853      2.0846335190358496      4.5601578910000002
   277   2      7.7479405634336853      2.0846335190358496      7.7137899320000001
   278   2      22.465487585445093       27.50755100732448      25.987737755000001
   279   2      22.465487585445093       27.50755100732448      29.141369796000003
   280   1      17.191960626589289      18.275953328584706      16.850456731000001
   281   1      29.347612213547336      39.248186589660712      6.1366667990000003
   282   2      14.828071638335656       14.05691023928317            15.273947823
   283   2      14.828071638335656       14.05691023928317      18.427579864000002
   284   1       24.39977327468074      30.609691690975829      27.564246663000002
   285   2      28.487923821461969      37.635077532596185      4.5601578910000002
   286   2      28.487923821461969      37.635077532596185      7.7137899320000001
   287   2      25.366916043124728      32.160762175990378      25.987737755000001
   288   2      25.366916043124728      32.160762175990378      29.141369796000003
   289   1      10.097861600624727      5.6174220447656795      16.850456731000001
   290   1      26.768546884515832      34.408859132317161      6.1366667990000003
   291   2      7.7339726123709287       1.398378955464429            15.273947823
   292   2      7.7339726123709287       1.398378955464429      18.427579864000002
   293   1      27.301201732634972      35.262714945650984      27.564246663000002
   294   2        25.9088584924306      32.795750075253061      4.5601578910000002
   295   2        25.9088584924306      32.795750075253061      7.7137899320000001
   296   2      28.268344501078463      36.813785430666115      25.987737755000001
   297   2      28.268344501078463      36.813785430666115      29.141369796000003
   298   1      26.325241717967746      33.352869536943636      16.850456731000001
   299   1      24.189481555484427      29.569531674973895      6.1366667990000003
   300   2      23.961352729714029      29.133826447642104            15.273947823
   301   2      23.961352729714029      29.133826447642104      18.427579864000002
   302   1      30.202630190314274      39.915926114317173      27.564246663000002
   303   2      23.329793163399252      27.956422617909794      4.5601578910000002
   304   2      23.329793163399252      27.956422617909794      7.7137899320000001
   305   2      7.8507243716982078      1.0772251284279115      25.987737755000001
   306   2      7.8507243716982078      1.0772251284279115      29.141369796000003
   307   1      19.233574695776298      20.695739949783384      16.850456731000001
   308   1      21.610416226453122      24.730204217630845      6.1366667990000003
   309   2      16.869685707522414      16.476696860482132            15.273947823
   310   2      16.869685707522414      16.476696860482132      18.427579864000002
   311   1      9.7850100609341872      4.1793658120789754      27.564246663000002
   312   2      20.750727834367741      23.117095160566166      4.5601578910000002
   313   2      20.750727834367741      23.117095160566166      7.7137899320000001
   314   2      10.752152829377682       5.730436297093811      25.987737755000001
   315   2      10.752152829377682       5.730436297093811      29.141369796000003
   316   1      12.139475669811652      8.0372086659646413      16.850456731000001
   317   1      19.031350897421817      19.890876760287512      6.1366667990000003
   318   2      9.7755866815578525      3.8181655766631044            15.273947823
   319   2      9.7755866815578525      3.8181655766631044      18.427579864000002
   320   1      12.686438518613908       8.832576980745019      27.564246663000002
   321   2      18.171662505336389      18.277767703222938      4.5601578910000002
   322   2      18.171662505336389      18.277767703222938      7.7137899320000001
   323   2      13.653581287057323      10.383647465759424      25.987737755000001
   324   2      13.653581287057323      10.383647465759424      29.141369796000003
   325   1       28.36685578715451      35.772656158142311      16.850456731000001
   326   1      16.452285568390231      15.051549302943886      6.1366667990000003
   327   2      26.002966798900871      31.553613068840782            15.273947823
   328   2      26.002966798900871      31.553613068840782      18.427579864000002
   329   1      15.588040024959161      13.485882106844949      27.564246663000002
   330   2      15.592597176304917      13.438440245879638      4.5601578910000002
   331   2      15.592597176304917      13.438440245879638      7.7137899320000001
   332   2      16.555182793402491      15.036952591859496      25.987737755000001
   333   2      16.555182793402491      15.036952591859496      29.141369796000003
   334   1      21.275188764963058      23.115526570982059      16.850456731000001
   335   1      13.873220239358879      10.212221845600549      6.1366667990000003
   336   2       18.91129977670926      18.896483481680807            15.273947823
   337   2       18.91129977670926      18.896483481680807      18.427579864000002
   338   1      18.489468482638554      18.139093275510703      27.564246663000002
   339   2      13.013531847273546      8.5991127885362317      4.5601578910000002
   340   2      13.013531847273546      8.5991127885362317      7.7137899320000001
   341   2      19.456611251082212      19.690163760525255      25.987737755000001
   342   2      19.456611251082212      19.690163760525255      29.141369796000003
   343   1      14.181089738998329      10.456995287163604      16.850456731000001
   344   1      11.294154910327407      5.3728943882572127      6.1366667990000003
   345   2      11.817200750744613      6.2379521978620653            15.273947823
   346   2      11.817200750744613      6.2379521978620653      18.427579864000002
   347   1      21.390896940318026      22.792304444176605      27.564246663000002
   348   2      10.434466518242361      3.7597853311933958      4.5601578910000002
   349   2      10.434466518242361      3.7597853311933958      7.7137899320000001
   350   2      22.358039708761691      24.343374929191437      25.987737755000001
   351   2      22.358039708761691      24.343374929191437      29.141369796000003
   352   1      30.408471303866691      38.189637170906863      16.850456731000001
   353   1      8.7150895812961604     0.53356693091416296      6.1366667990000003
   354   2      28.044580868087714      33.973399690039884            15.273947823
   355   2      28.044580868087714      33.973399690039884      18.427579864000002
   356   1      24.292325397997587      27.445515612842648      27.564246663000002
   357   2      31.174449776270652      39.310229344753729      4.5601578910000002