(written by ASE)

2223 atoms
2 atom types

0.0      49.757588454430689  xlo xhi
0.0       43.09134189615034  ylo yhi
0.0      74.581211905000004  zlo zhi
     24.878796387807231                       0                       0  xy xz yz

Masses

     1      95.949999975317411 # Mo
     2      32.059999991752747 # S

Atoms # atomic

     1   2       20.71967298120353      35.886982847558869            15.273947823
     2   2       20.71967298120353      35.886982847558869      18.427579864000002
     3   1      1.8193893506689358       3.147688258948532      16.850456731000001
     4   1      15.143834127915568      26.189184595098524      6.1366667990000003
     5   2      23.458322328834985      40.504279544178821      25.987737755000001
     6   2      23.458322328834985      40.504279544178821      29.141369796000003
     7   1      8.8104142219930015      15.118647766581111      16.850456731000001
     8   2      1.5461113822083012      2.5209305724769444      4.5601578910000002
     9   2      1.5461113822083012      2.5209305724769444      7.7137899320000001
    10   1       12.27825372324379      21.022875587330191      27.564246663000002
    11   2      2.8669368523114054      4.7097069513243355            15.273947823
    12   2      2.8669368523114054      4.7097069513243355      18.427579864000002
    13   1      24.108258719792676      41.367106639491489      6.1366667990000003
    14   2      14.796399599026831      25.151705577345208      25.987737755000001
    15   2      14.796399599026831      25.151705577345208      29.141369796000003
    16   1      15.861961490025557      26.981330671012842      16.850456731000001
    17   2      10.510535974085499      17.698852616870063      4.5601578910000002
    18   2      10.510535974085499      17.698852616870063      7.7137899320000001
    19   1      3.6158179426861481       5.670597834641006      27.564246663000002
    20   2       9.918484120343761      16.572389855756068            15.273947823
    21   2       9.918484120343761      16.572389855756068      18.427579864000002
    22   1      8.1938869238626211      13.453686787734222      6.1366667990000003
    23   2      6.1339638184691898      9.7994278246560249      25.987737755000001
    24   2      6.1339638184691898      9.7994278246560249      29.141369796000003
    25   1      22.913508758058285      38.844013575444876      16.850456731000001
    26   2      19.474960565962562        32.8767746612628      4.5601578910000002
    27   2      19.474960565962562        32.8767746612628      7.7137899320000001
    28   1      19.832691600685038      33.409365763957425      27.564246663000002
    29   2      16.970031388376295      28.435072760187651            15.273947823
    30   2      16.970031388376295      28.435072760187651      18.427579864000002
    31   1      17.158311515739818      28.631608832127341      6.1366667990000003
    32   2      22.351915667588258      37.530584552825765      25.987737755000001
    33   2      22.351915667588258      37.530584552825765      29.141369796000003
    34   2      3.5605887700325956      4.9633548095056836      4.5601578910000002
    35   2      3.5605887700325956      4.9633548095056836      7.7137899320000001
    36   1      11.170255820127133      18.057088011268092      27.564246663000002
    37   1      5.1404164493430251      7.5107515886808507      16.850456731000001
    38   2      24.040702546529989      40.246377311005091            15.273947823
    39   2      24.040702546529989      40.246377311005091      18.427579864000002
    40   1      1.2439397198097402     0.71818898036988232      6.1366667990000003
    41   2      13.688401695910439      22.185918001283259      25.987737755000001
    42   2      13.688401695910439      22.185918001283259      29.141369796000003
    43   2      12.525013361909682      20.141276853898614      4.5601578910000002
    44   2      12.525013361909682      20.141276853898614      7.7137899320000001
    45   1      12.144182358573778      19.459688414857869      16.850456731000001
    46   1      2.5078200395697574      2.7048102585789056      27.564246663000002
    47   2      6.2070804411499365      9.0323985263008009            15.273947823
    48   2      6.2070804411499365      9.0323985263008009      18.427579864000002
    49   1      10.208364311686958      15.896111024763037      6.1366667990000003
    50   2      5.0259659153524456      6.8336402485937713      25.987737755000001
    51   2      5.0259659153524456      6.8336402485937713      29.141369796000003
    52   2      21.489437953786855      35.319198898291688      4.5601578910000002
    53   2      21.489437953786855      35.319198898291688      7.7137899320000001
    54   1      18.724693697568735      30.443578187895636      27.564246663000002
    55   1      19.214851050075257      31.274661831961367      16.850456731000001
    56   1       19.17278890356409      31.074033069156044      6.1366667990000003
    57   2      13.277749132651392       20.84737194340422            15.273947823
    58   2      13.277749132651392       20.84737194340422      18.427579864000002
    59   2      21.242839573351606      34.572408177910191      25.987737755000001
    60   2      21.242839573351606      34.572408177910191      29.141369796000003
    61   1      1.3557394689252176     0.11573500902674566      16.850456731000001
    62   2      5.5750661578568019      7.4057790465344242      4.5601578910000002
    63   2      5.5750661578568019      7.4057790465344242      7.7137899320000001
    64   1      10.062257917010744      15.091300435206145      27.564246663000002
    65   2      20.294241279874779      32.796299285842196            15.273947823
    66   2      20.294241279874779      32.796299285842196      18.427579864000002
    67   1      3.2584171076340347      3.1606132173987747      6.1366667990000003
    68   2      12.580403792793785      19.220130425221161      25.987737755000001
    69   2      12.580403792793785      19.220130425221161      29.141369796000003
    70   2      14.539490749733799      22.583701090927043      4.5601578910000002
    71   2      14.539490749733799      22.583701090927043      7.7137899320000001
    72   1      26.278618524260423      42.830364578667307      27.564246663000002
    73   1      8.4614435480171384      11.873814918413208      16.850456731000001
    74   2      2.4861111169167027      1.5235996730817192            15.273947823
    75   2      2.4861111169167027      1.5235996730817192      18.427579864000002
    76   1      12.222841699511187      18.338535261791815      6.1366667990000003
    77   2      3.9179680122361442      3.8678526725319768      25.987737755000001
    78   2      3.9179680122361442      3.8678526725319768      29.141369796000003
    79   1       15.45883400498982      23.841100817890059      16.850456731000001
    80   2       23.50391534161114      37.761623135320562      4.5601578910000002
    81   2       23.50391534161114      37.761623135320562      7.7137899320000001
    82   1      17.616695794452351      27.477790611833534      27.564246663000002
    83   2      9.5153566353079579      13.432160002633132            15.273947823
    84   2      9.5153566353079579      13.432160002633132      18.427579864000002
    85   1      21.187266291388294      33.516457306184776      6.1366667990000003
    86   2      20.134841670235033      31.606620601848245      25.987737755000001
    87   2      20.134841670235033      31.606620601848245      29.141369796000003
    88   1       22.51038127302273        35.7037837223221      16.850456731000001
    89   2      7.5895435456810949      9.8482032835631621      4.5601578910000002
    90   2      7.5895435456810949      9.8482032835631621      7.7137899320000001
    91   1       8.954260013894352      12.125512859144196      27.564246663000002
    92   2      16.566903903340581      25.294842907064865            15.273947823
    93   2      16.566903903340581      25.294842907064865      18.427579864000002
    94   1      5.2728944954583286      5.6030374544275148      6.1366667990000003
    95   2      11.472405889677219      16.254342849159062      25.987737755000001
    96   2      11.472405889677219      16.254342849159062      29.141369796000003
    97   1       4.679949360423306      4.4769615346809903      16.850456731000001
    98   2      16.553968137558268       25.02612532795624      4.5601578910000002
    99   2      16.553968137558268       25.02612532795624      7.7137899320000001
   100   1        25.1711336718936      39.864280788460619      27.564246663000002
   101   2      23.618451171373355      37.157525811496903            15.273947823
   102   2      23.618451171373355      37.157525811496903      18.427579864000002
   103   1      14.237319087335459      20.780959498820518      6.1366667990000003
   104   2      2.8099701091195768     0.90206509646987643      25.987737755000001
   105   2      2.8099701091195768     0.90206509646987643      29.141369796000003
   106   2       25.51839272943543      40.204047372349301      4.5601578910000002
   107   2       25.51839272943543      40.204047372349301      7.7137899320000001
   108   1      16.508697891335782      24.512003035771436      27.564246663000002
   109   1      11.782470646691385      16.236878248145491      16.850456731000001
   110   2      5.8071382155909026      5.8866630028140765            15.273947823
   111   2      5.8071382155909026      5.8866630028140765      18.427579864000002
   112   1      23.201743679212608      35.958881543213558      6.1366667990000003
   113   2      19.026843767118734      28.640833025786453      25.987737755000001
   114   2      19.026843767118734      28.640833025786453      29.141369796000003
   115   1      18.783043896488419      28.202327343544614      16.850456731000001
   116   2       9.604020933505387       12.29062752059205      4.5601578910000002
   117   2       9.604020933505387       12.29062752059205      7.7137899320000001
   118   1      7.8462621107778752      9.1597252830822491      27.564246663000002
   119   2      12.839566526806555      17.793386528287684            15.273947823
   120   2      12.839566526806555      17.793386528287684      18.427579864000002
   121   1      7.2873718832825798      8.0454616914563317      6.1366667990000003
   122   2       10.36440798656065      13.288555273097112      25.987737755000001
   123   2       10.36440798656065      13.288555273097112      29.141369796000003
   124   1      25.834591164520777      40.065010247976353      16.850456731000001
   125   2      18.568445525382522      27.468549564985057      4.5601578910000002
   126   2      18.568445525382522      27.468549564985057      7.7137899320000001
   127   1      24.063135768777126      36.898493212398677      27.564246663000002
   128   2      19.891113794839153      29.656069432719569            15.273947823
   129   2      19.891113794839153      29.656069432719569      18.427579864000002
   130   1      16.251796475159711      23.223383735849335      6.1366667990000003
   131   1      8.0041592519219034      8.8381880603356962      16.850456731000001
   132   2      27.532870117259652      42.646471609377905      4.5601578910000002
   133   2      27.532870117259652      42.646471609377905      7.7137899320000001
   134   2      26.592677281095334      41.006184047778987      25.987737755000001
   135   2      26.592677281095334      41.006184047778987      29.141369796000003
   136   1      15.400704329021053      21.545630561971386      27.564246663000002
   137   2      26.939478270047225      41.520589141228953            15.273947823
   138   2      26.939478270047225      41.520589141228953      18.427579864000002
   139   1      25.216221067036884       38.40130578024241      6.1366667990000003
   140   2      17.918845864002346      25.675045449724504      25.987737755000001
   141   2      17.918845864002346      25.675045449724504      29.141369796000003
   142   2       11.61849832132966      14.733051757620755      4.5601578910000002
   143   2       11.61849832132966      14.733051757620755      7.7137899320000001
   144   1      6.7382642076614854      6.1939377070203019      27.564246663000002
   145   2      9.1313431737846855      10.255227261040737            15.273947823
   146   2      9.1313431737846855      10.255227261040737      18.427579864000002
   147   1      15.103500212017758      20.596272711591716      16.850456731000001
   148   1       9.301849271106807      10.487885928485108      6.1366667990000003
   149   2      9.2564100834445266      10.322767697035321      25.987737755000001
   150   2      9.2564100834445266      10.322767697035321      29.141369796000003
   151   1      22.107253787986906      32.563553869199168      16.850456731000001
   152   2      20.582922913206822      29.910973802013807      4.5601578910000002
   153   2      20.582922913206822      29.910973802013807      7.7137899320000001
   154   1      22.955137865660465      33.932705636336571      27.564246663000002
   155   2      16.163776418304998      22.154613053942235            15.273947823
   156   2      16.163776418304998      22.154613053942235      18.427579864000002
   157   1      18.266273862984004      25.665807972878074      6.1366667990000003
   158   2      25.473283741443595      38.061535626351741      25.987737755000001
   159   2      25.473283741443595      38.061535626351741      29.141369796000003
   160   1      4.2768218753878564      1.3367316815583601      16.850456731000001
   161   2      4.6685511172767491      1.9975539502565138      4.5601578910000002
   162   2      4.6685511172767491      1.9975539502565138      7.7137899320000001
   163   1      14.292702085102826      18.580427883647538      27.564246663000002
   164   2      23.215323686337644       34.01729595837412            15.273947823
   165   2      23.215323686337644       34.01729595837412      18.427579864000002
   166   1      27.230698454861166      40.843730017271128      6.1366667990000003
   167   2      16.810847960885603      22.709257873662409      25.987737755000001
   168   2      16.810847960885603      22.709257873662409      29.141369796000003
   169   1      11.328369143420346      13.199414585990246      16.850456731000001
   170   2      13.632975709153904      17.175475994649556      4.5601578910000002
   171   2      13.632975709153904      17.175475994649556      7.7137899320000001
   172   1      5.6302663045447412      3.2281501309580487      27.564246663000002
   173   2      5.3848917737384623      2.7904737707333194            15.273947823
   174   2      5.3848917737384623      2.7904737707333194      18.427579864000002
   175   1      11.316326658931036      12.930310165513733      6.1366667990000003
   176   2      8.1484121803276945      7.3569801209730672      25.987737755000001
   177   2      8.1484121803276945      7.3569801209730672      29.141369796000003
   178   2      22.597400301031087      32.353398039042652      4.5601578910000002
   179   2      22.597400301031087      32.353398039042652      7.7137899320000001
   180   1      21.847139962544169      30.966918060274782      27.564246663000002
   181   1      18.424527310692046      24.959336041324072      16.850456731000001
   182   2      12.461930984193371      14.594435847109018            15.273947823
   183   2      12.461930984193371      14.594435847109018      18.427579864000002
   184   1      20.280751250808212      28.108232209906813      6.1366667990000003
   185   2      24.365285838326944      35.095748050289643      25.987737755000001
   186   2      24.365285838326944      35.095748050289643      29.141369796000003
   187   2      6.6830285051009222      4.4399781872850417      4.5601578910000002
   188   2      6.6830285051009222      4.4399781872850417      7.7137899320000001
   189   1      13.184704181986435      15.614640307585747      27.564246663000002
   190   1      25.469704059771129      36.833030286483762      16.850456731000001
   191   1      4.3663794548781549     0.19481235814954703      6.1366667990000003
   192   2      19.545325913687403      26.409399780473713            15.273947823
   193   2      19.545325913687403      26.409399780473713      18.427579864000002
   194   2       15.70285005776921      19.743470297600609      25.987737755000001
   195   2       15.70285005776921      19.743470297600609      29.141369796000003
   196   1      7.6010317668863205      5.6979582072129107      16.850456731000001
   197   2      15.647453096978184      19.617900231678274      4.5601578910000002
   198   2      15.647453096978184      19.617900231678274      7.7137899320000001
   199   1      4.5222684014285273     0.26236255489610177      27.564246663000002
   200   2      26.539533577835975      38.378522484028672            15.273947823
   201   2      26.539533577835975      38.378522484028672      18.427579864000002
   202   1      13.330804046755318      15.372734402542607      6.1366667990000003
   203   2      7.0404142772113039      4.3911925449109672      25.987737755000001
   204   2      7.0404142772113039      4.3911925449109672      29.141369796000003
   205   1       14.65257903491892      17.560641111644951      16.850456731000001
   206   2      24.611877688855341       34.79582227607132      4.5601578910000002
   207   2      24.611877688855341       34.79582227607132      7.7137899320000001
   208   1      20.739142059427511      28.001130484212677      27.564246663000002
   209   2      8.7091016652369273      7.1517002963877179            15.273947823
   210   2      8.7091016652369273      7.1517002963877179      18.427579864000002
   211   1      22.295228638632501      30.550656446935552      6.1366667990000003
   212   2      23.257287935210638      32.129960474227694      25.987737755000001
   213   2      23.257287935210638      32.129960474227694      29.141369796000003
   214   2       8.697505892925216      6.8824024243139341      4.5601578910000002
   215   2       8.697505892925216      6.8824024243139341      7.7137899320000001
   216   1      12.076706278869692      12.648852731523494      27.564246663000002
   217   1      21.745554409366068      29.322399371056274      16.850456731000001
   218   2      15.776577697305045      18.983185982713781            15.273947823
   219   2      15.776577697305045      18.983185982713781      18.427579864000002
   220   1      6.3808568427024497      2.6372365951782868      6.1366667990000003
   221   2      14.594852154652733      16.777682721538355      25.987737755000001
   222   2      14.594852154652733      16.777682721538355      29.141369796000003
   223   1      28.755673570983944      41.286006920508413      16.850456731000001
   224   2      17.661930484802394      22.060324468707012      4.5601578910000002
   225   2      17.661930484802394      22.060324468707012      7.7137899320000001
   226   1      28.293579936868845      40.387620660839907      27.564246663000002
   227   2      22.812196201302019      30.877066105251494            15.273947823
   228   2      22.812196201302019      30.877066105251494      18.427579864000002
   229   1      15.345281434579656      17.815158639571422      6.1366667990000003
   230   2      5.9324163740948253      1.4254049688491728      25.987737755000001
   231   2      5.9324163740948253      1.4254049688491728      29.141369796000003
   232   1       10.92524165838492      10.059184732867617      16.850456731000001
   233   2       26.62635507667957      37.238246513100101      4.5601578910000002
   234   2       26.62635507667957      37.238246513100101      7.7137899320000001
   235   2      29.860560676510147      42.741585813760722            15.273947823
   236   2      29.860560676510147      42.741585813760722      18.427579864000002
   237   1      19.633809248499315      25.020409189450973      27.564246663000002
   238   1      24.309706026456709      32.993080683964287      6.1366667990000003
   239   2      22.149290032094246      29.164172898165745      25.987737755000001
   240   2      22.149290032094246      29.164172898165745      29.141369796000003
   241   1      17.976788926417385      21.921867637299346      16.850456731000001
   242   2      10.711983280749511      9.3248266613428274      4.5601578910000002
   243   2      10.711983280749511      9.3248266613428274      7.7137899320000001
   244   1      10.968708375753389       9.683065155461394      27.564246663000002
   245   2      12.033311556735303      11.512926822042116            15.273947823
   246   2      12.033311556735303      11.512926822042116      18.427579864000002
   247   1         8.3953342305267       5.079660832207102      6.1366667990000003
   248   2      13.486854251536428      13.811895145476562      25.987737755000001
   249   2      13.486854251536428      13.811895145476562      29.141369796000003
   250   2      19.676407872626687      24.502748705735755      4.5601578910000002
   251   2      19.676407872626687      24.502748705735755      7.7137899320000001
   252   1      27.185582033752368      37.421833084777965      27.564246663000002
   253   1      25.069759367559964      33.690963629283168      16.850456731000001
   254   2       19.09760479597907      23.346249312445988            15.273947823
   255   2       19.09760479597907      23.346249312445988      18.427579864000002
   256   1      17.359758822403872      20.257582876600175      6.1366667990000003
   257   2      29.703214858785753       41.55095928893757      25.987737755000001
   258   2      29.703214858785753       41.55095928893757      29.141369796000003
   259   1      7.1979042818510042      2.5577283540904339      16.850456731000001
   260   2      28.640832464503859      39.680670750128833      4.5601578910000002
   261   2      28.640832464503859      39.680670750128833      7.7137899320000001
   262   1      18.523146253194817      22.069555332088783      27.564246663000002
   263   2      26.136406092800257      35.238292630905732            15.273947823
   264   2      26.136406092800257      35.238292630905732      18.427579864000002
   265   1      26.324183414281006      35.435504920993033      6.1366667990000003
   266   2      21.041292128977769        26.1983853221038      25.987737755000001
   267   2      21.041292128977769        26.1983853221038      29.141369796000003
   268   1      14.249451549883251      14.420411258522016      16.850456731000001
   269   2      12.726460668573772      11.767250898371509      4.5601578910000002
   270   2      12.726460668573772      11.767250898371509      7.7137899320000001
   271   1      9.8607104726368231      6.7172775793994468      27.564246663000002
   272   2      8.3059741802013889      4.0114704432649333            15.273947823
   273   2      8.3059741802013889      4.0114704432649333      18.427579864000002
   274   1       10.40981161835095      7.5220850692357653      6.1366667990000003
   275   2      12.378856348419774      10.846107569414464      25.987737755000001
   276   2      12.378856348419774      10.846107569414464      29.141369796000003
   277   1      21.300998817916025      26.283094162953901      16.850456731000001
   278   2      21.690885260450891      26.945172942764493      4.5601578910000002
   279   2      21.690885260450891      26.945172942764493      7.7137899320000001
   280   1      26.077584130635895      34.456045508715874      27.564246663000002
   281   2      15.357521448233877      15.874153347696822            15.273947823
   282   2      15.357521448233877      15.874153347696822      18.427579864000002
   283   1      19.374236210228126      22.700007113628843      6.1366667990000003
   284   2      28.595730006418933      38.584875498730888      25.987737755000001
   285   2      28.595730006418933      38.584875498730888      29.141369796000003
   286   2       30.65530985232807      42.123094987157423      4.5601578910000002
   287   2       30.65530985232807      42.123094987157423      7.7137899320000001
   288   1      17.415148350078425      19.103767756026837      27.564246663000002
   289   2      22.409068716266365      27.736836252128555            15.273947823
   290   2      22.409068716266365      27.736836252128555      18.427579864000002
   291   1       28.39078893288621      38.050358092729319      16.850456731000001
   292   1      28.338660802105302      37.877929158021928      6.1366667990000003
   293   2      19.933294225861026      23.232597746041701      25.987737755000001
   294   2      19.933294225861026      23.232597746041701      29.141369796000003
   295   1       10.52211417334949      6.9189548797449847      16.850456731000001
   296   2      14.740938056398022      14.209675135400325      4.5601578910000002
   297   2      14.740938056398022      14.209675135400325      7.7137899320000001
   298   1      8.7527125695204298      3.7514900033374974      27.564246663000002
   299   2       29.46061598429888      39.599519156560291            15.273947823
   300   2       29.46061598429888      39.599519156560291      18.427579864000002
   301   1      12.424289006175266      9.9645093062646968      6.1366667990000003
   302   2      11.270858445303473      7.8803199933526695      25.987737755000001
   303   2      11.270858445303473      7.8803199933526695      29.141369796000003
   304   1      17.573661441381738      18.781637784176567      16.850456731000001
   305   2      23.705362648275187      29.387597179793236      4.5601578910000002
   306   2      23.705362648275187      29.387597179793236      7.7137899320000001
   307   1      24.969586227519414      31.490257932653918      27.564246663000002
   308   2      11.646115302387724      8.3378308845276834            15.273947823
   309   2      11.646115302387724      8.3378308845276834      18.427579864000002
   310   1      21.388713598052398      25.142431350657695      6.1366667990000003
   311   2      27.487732103302456      35.619087922668939      25.987737755000001
   312   2      27.487732103302456      35.619087922668939      29.141369796000003
   313   2      7.7909908523451321      1.4741773280359678      4.5601578910000002
   314   2      7.7909908523451321      1.4741773280359678      7.7137899320000001
   315   1      16.307150446961771      16.137980179964888      27.564246663000002
   316   1      24.653885911313107      30.580094190188408      16.850456731000001
   317   1      30.353138189929592       40.32035339505066      6.1366667990000003
   318   2      18.716783993889202      20.152804301631331            15.273947823
   319   2      18.716783993889202      20.152804301631331      18.427579864000002
   320   2      18.825296322744634      20.266810169979752      25.987737755000001
   321   2      18.825296322744634      20.266810169979752      29.141369796000003
   322   2      16.755415444222308      16.652099372429046      4.5601578910000002
   323   2      16.755415444222308      16.652099372429046      7.7137899320000001
   324   1      7.6447146664041297     0.78570242727570416      27.564246663000002
   325   1      31.714993891080191      42.418922350956208      16.850456731000001
   326   2      25.742839319499392      32.074208034119025            15.273947823
   327   2      25.742839319499392      32.074208034119025      18.427579864000002
   328   1      14.438766393999495      12.406933543293322      6.1366667990000003
   329   2      10.162860542186552       4.914532417290264      25.987737755000001
   330   2      10.162860542186552       4.914532417290264      29.141369796000003
   331   1      13.846324064847932      11.280181405399537      16.850456731000001
   332   2      25.719840036099495      31.830021416822152      4.5601578910000002
   333   2      25.719840036099495      31.830021416822152      7.7137899320000001
   334   1      23.861588324403023      28.524470356592126      27.564246663000002
   335   2      7.9028466951658274     0.87124059014215061            15.273947823
   336   2      7.9028466951658274     0.87124059014215061      18.427579864000002
   337   1      23.403190985876623       27.58485558768632      6.1366667990000003
   338   2      26.379734200185801      32.653300346606684      25.987737755000001
   339   2      26.379734200185801      32.653300346606684      29.141369796000003
   340   1      20.897871332880179      23.142864309831118      16.850456731000001
   341   2      9.8054682401694695      3.9166015650649375      4.5601578910000002
   342   2      9.8054682401694695      3.9166015650649375      7.7137899320000001
   343   1       15.19915254384547      13.172192603903094      27.564246663000002
   344   2      14.954393963198163      12.733923494574038            15.273947823
   345   2      14.954393963198163      12.733923494574038      18.427579864000002
   346   1      32.367615577753845      42.762777632079477      6.1366667990000003
   347   2      17.717298419628158      17.301022593917654      25.987737755000001
   348   2      17.717298419628158      17.301022593917654      29.141369796000003
   349   1       27.94941860091269      35.005547214262847      16.850456731000001
   350   2      18.769892832046555      19.094523609457859      4.5601578910000002
   351   2      18.769892832046555      19.094523609457859      7.7137899320000001
   352   1      31.416026201844364       40.91096053321936      27.564246663000002
   353   2      22.005941231230938      24.596606399005921            15.273947823
   354   2      22.005941231230938      24.596606399005921      18.427579864000002
   355   1      16.453243781823744      14.849357780322137      6.1366667990000003
   356   2      9.0548626390703379      1.9487448412284682      25.987737755000001
   357   2      9.0548626390703379      1.9487448412284682      29.141369796000003