(written by ASE)

819 atoms
2 atom types

0.0      30.201711535700145  xlo xhi
0.0      26.155451792130176  ylo yhi
0.0      74.581211905000004  zlo zhi
     15.100852514663549                       0                       0  xy xz yz

Masses

     1      95.949999975317411 # Mo
     2      32.059999991752747 # S

Atoms # atomic

     1   2      2.5638261234412698      4.3831936904012156      4.5601578910000002
     2   2      2.5638261234412698      4.3831936904012156      7.7137899320000001
     3   1      2.3028397291542286      3.8806125491625654      16.850456731000001
     4   2       9.686656380033881      16.605032108466958      25.987737755000001
     5   2       9.686656380033881      16.605032108466958      29.141369796000003
     6   1      3.5594867034835938       5.916114038263288      6.1366667990000003
     7   2      11.927016407481306      20.359811469978879            15.273947823
     8   2      11.927016407481306      20.359811469978879      18.427579864000002
     9   1      8.8569679835806774      14.976289610015968      27.564246663000002
    10   2      5.5508080110271862      8.9819544450613122      4.5601578910000002
    11   2      5.5508080110271862      8.9819544450613122      7.7137899320000001
    12   1     0.97513116660978738      1.0064613226911727      16.850456731000001
    13   2      7.1975910436530572      11.718804323965273      25.987737755000001
    14   2      7.1975910436530572      11.718804323965273      29.141369796000003
    15   1      6.5464685910694831      10.514874792923523      6.1366667990000003
    16   2      10.599307844936863      17.485660243507493            15.273947823
    17   2      10.599307844936863      17.485660243507493      18.427579864000002
    18   1      6.3679026471997382       10.09006182551447      27.564246663000002
    19   2      8.5377898986131022      13.580715199721778      4.5601578910000002
    20   2      8.5377898986131022      13.580715199721778      7.7137899320000001
    21   1      14.748275118728948       24.28776188834987      16.850456731000001
    22   2      4.7085257072721181      6.8325765394637727      25.987737755000001
    23   2      4.7085257072721181      6.8325765394637727      29.141369796000003
    24   1      9.5334504786554266      15.113635547583852      6.1366667990000003
    25   2       9.273066709736792      14.612355253752403            15.273947823
    26   2       9.273066709736792      14.612355253752403      18.427579864000002
    27   1      3.8788373108188607      5.2038340410126915      27.564246663000002
    28   2      11.524771786198993      18.179475954381829      4.5601578910000002
    29   2      11.524771786198993      18.179475954381829      7.7137899320000001
    30   1      13.420566556184506      21.413610661878476      16.850456731000001
    31   2      2.2194603661339616      1.9468884875510424      25.987737755000001
    32   2      2.2194603661339616      1.9468884875510424      29.141369796000003
    33   1      12.520432366241343      19.712396302243945      6.1366667990000003
    34   2       7.945357181321647      11.736513062884518            15.273947823
    35   2       7.945357181321647      11.736513062884518      18.427579864000002
    36   1      1.3893110563394369     0.31787611863036747      27.564246663000002
    37   2      14.511753673784909      22.778236709042108      4.5601578910000002
    38   2      14.511753673784909      22.778236709042108      7.7137899320000001
    39   1      12.092857993640065      18.539459435407082      16.850456731000001
    40   2      14.830786631075251      23.215842624709758      25.987737755000001
    41   2      14.830786631075251      23.215842624709758      29.141369796000003
    42   1      15.507414253827234      24.311157056904186      6.1366667990000003
    43   2      6.6176486187772596      8.8623618364132177            15.273947823
    44   2      6.6176486187772596      8.8623618364132177      18.427579864000002
    45   1      14.001098234622109      21.587100126258768      27.564246663000002
    46   2      2.3978830467072769      1.2215456715723974      4.5601578910000002
    47   2      2.3978830467072769      1.2215456715723974      7.7137899320000001
    48   1      10.765149431095624      15.665308208935878      16.850456731000001
    49   2       12.34172129469432      18.329614840207981      25.987737755000001
    50   2       12.34172129469432      18.329614840207981      29.141369796000003
    51   1      3.3935436267495471      2.7544660194341906      6.1366667990000003
    52   2      5.2899400562328189      5.9882106099418246            15.273947823
    53   2      5.2899400562328189      5.9882106099418246      18.427579864000002
    54   1      11.512032898241117       16.70087234175708      27.564246663000002
    55   2      5.3848649342931658      5.8203064262326327      4.5601578910000002
    56   2      5.3848649342931658      5.8203064262326327      7.7137899320000001
    57   1      9.4389082958957129      12.792003219180694      16.850456731000001
    58   2      9.8526559583134965      13.443387055706388      25.987737755000001
    59   2      9.8526559583134965      13.443387055706388      29.141369796000003
    60   1      6.3805255143354902       7.353226774094705      6.1366667990000003
    61   2      3.9622314936883232      3.1140593834703405            15.273947823
    62   2      3.9622314936883232      3.1140593834703405      18.427579864000002
    63   1      9.0229675618602982        11.8146445572554      27.564246663000002
    64   2      8.3718468218790019      10.419067180892773      4.5601578910000002
    65   2      8.3718468218790019      10.419067180892773      7.7137899320000001
    66   1      8.1111987674805164      9.9161610283129047      16.850456731000001
    67   2      7.3635906219325573      8.5571592712047941      25.987737755000001
    68   2      7.3635906219325573      8.5571592712047941      29.141369796000003
    69   1      9.3675074019213795      11.951987528754941      6.1366667990000003
    70   2      2.6345229311439358     0.23990815699904131            15.273947823
    71   2      2.6345229311439358     0.23990815699904131      18.427579864000002
    72   1      6.5339022254793537      6.9284167727539003      27.564246663000002
    73   2      11.358828709464946      15.017827935553102      4.5601578910000002
    74   2      11.358828709464946      15.017827935553102      7.7137899320000001
    75   1      6.7834902049360215      7.0420098018412336      16.850456731000001
    76   2      4.8745252855515657      3.6709314867032039      25.987737755000001
    77   2      4.8745252855515657      3.6709314867032039      29.141369796000003
    78   1      12.354489289507216      16.550748283415082      6.1366667990000003
    79   2      16.407666883263044      23.521208722657825            15.273947823
    80   2      16.407666883263044      23.521208722657825      18.427579864000002
    81   1      4.0443759709998757      2.0424588503713901      27.564246663000002
    82   2      14.345810597050836      19.616588690213334      4.5601578910000002
    83   2      14.345810597050836      19.616588690213334      7.7137899320000001
    84   1      5.4557816423916323      4.1678585753701203      16.850456731000001
    85   2      17.485851545735802      24.940425356450874      25.987737755000001
    86   2      17.485851545735802      24.940425356450874      29.141369796000003
    87   1       15.34147117709316      21.149509038075408      6.1366667990000003
    88   2      15.079958320718655      20.647057496186346            15.273947823
    89   2      15.079958320718655      20.647057496186346      18.427579864000002
    90   1      16.656163149282659      23.311682857999976      27.564246663000002
    91   2      17.332792484636727      24.215349444873574      4.5601578910000002
    92   2      17.332792484636727      24.215349444873574      7.7137899320000001
    93   1      4.1280730798472982      1.2937073488987278      16.850456731000001
    94   2      14.996786209354873      20.054197571949189      25.987737755000001
    95   2      14.996786209354873      20.054197571949189      29.141369796000003
    96   1      18.328453064679046      25.748269792735645      6.1366667990000003
    97   2      13.752249758174052      17.772906269715044            15.273947823
    98   2      13.752249758174052      17.772906269715044      18.427579864000002
    99   1      14.167097812901723      18.425455073498298      27.564246663000002
   100   2       5.218921857559093      2.6586584074034887      4.5601578910000002
   101   2       5.218921857559093      2.6586584074034887      7.7137899320000001
   102   1      17.901217031966297      24.575007914557329      16.850456731000001
   103   2      12.507720872973941       15.16796978744741      25.987737755000001
   104   2      12.507720872973941       15.16796978744741      29.141369796000003
   105   1      6.2145824376013898      4.1915787552657005      6.1366667990000003
   106   2      12.424541195629827      14.898755043243654            15.273947823
   107   2      12.424541195629827      14.898755043243654      18.427579864000002
   108   1       11.67803247652073      13.539227288996608      27.564246663000002
   109   2      8.2059037451450099      7.2574191620637691      4.5601578910000002
   110   2      8.2059037451450099      7.2574191620637691      7.7137899320000001
   111   1       16.57350846942191      21.700856688086031      16.850456731000001
   112   2      10.018655536592998      10.281742002945911      25.987737755000001
   113   2      10.018655536592998      10.281742002945911      29.141369796000003
   114   1       9.201564325187281      8.7903395099259338      6.1366667990000003
   115   2      11.098300060429917      12.025450053488473            15.273947823
   116   2      11.098300060429917      12.025450053488473      18.427579864000002
   117   1      9.1889671401397912      8.6529995044949217      27.564246663000002
   118   2      11.192885632730899      11.856179916724006      4.5601578910000002
   119   2      11.192885632730899      11.856179916724006      7.7137899320000001
   120   1      15.245799906877362      18.826705461614637      16.850456731000001
   121   2      7.5295902002121187      5.3955142184442266      25.987737755000001
   122   2      7.5295902002121187      5.3955142184442266      29.141369796000003
   123   1      12.188546212773224      13.389100264586078      6.1366667990000003
   124   2      9.7705905320146105      9.1496078626206785            15.273947823
   125   2      9.7705905320146105      9.1496078626206785      18.427579864000002
   126   1      6.6994408856604277      3.7670415821125065      27.564246663000002
   127   2      14.179867520316789      16.454940671384424      4.5601578910000002
   128   2      14.179867520316789      16.454940671384424      7.7137899320000001
   129   1      13.918091344332922      15.952554235143241      16.850456731000001
   130   2      5.0400639457326939     0.50955629606181041      25.987737755000001
   131   2      5.0400639457326939     0.50955629606181041      29.141369796000003
   132   1      15.175528100359111       17.98786101924631      6.1366667990000003
   133   2      8.4428819694701698      6.2754566361492863            15.273947823
   134   2      8.4428819694701698      6.2754566361492863      18.427579864000002
   135   1      19.311228063943098      25.036265589741003      27.564246663000002
   136   2      17.166849407902735       21.05370142604475      4.5601578910000002
   137   2      17.166849407902735       21.05370142604475      7.7137899320000001
   138   1      12.590382781788479      13.078403008671852      16.850456731000001
   139   2      17.651851124015366      21.778780303690304      25.987737755000001
   140   2      17.651851124015366      21.778780303690304      29.141369796000003
   141   1      18.162509987945004      22.586621773906732      6.1366667990000003
   142   2      7.1151734069257282      3.4013054096778954            15.273947823
   143   2      7.1151734069257282      3.4013054096778954      18.427579864000002
   144   1      16.822162727562162      20.150037805239407      27.564246663000002
   145   2      20.153831295488569      25.652462180704894      4.5601578910000002
   146   2      20.153831295488569      25.652462180704894      7.7137899320000001
   147   1       11.26414164658857      10.205098018916672      16.850456731000001
   148   2      15.162785787634487      16.892552519188619      25.987737755000001
   149   2      15.162785787634487      16.892552519188619      29.141369796000003
   150   1       6.048639360867397      1.0299307364366954      6.1366667990000003
   151   2      5.7874648443812875      0.5271541832065032            15.273947823
   152   2      5.7874648443812875      0.5271541832065032      18.427579864000002
   153   1       14.33309739118117      15.263810020737724      27.564246663000002
   154   2      8.0399606684109628      4.0957711432348587      4.5601578910000002
   155   2      8.0399606684109628      4.0957711432348587      7.7137899320000001
   156   1      9.9364321181734798      7.3292558280488809      16.850456731000001
   157   2       12.67372045125355      12.006324734687027      25.987737755000001
   158   2       12.67372045125355      12.006324734687027      29.141369796000003
   159   1      9.0356212484532854       5.628691491096931      6.1366667990000003
   160   2      19.560608796500393      23.808454748865291            15.273947823
   161   2      19.560608796500393      23.808454748865291      18.427579864000002
   162   1      11.844032054800344      10.377582236236039      27.564246663000002
   163   2      11.026942555996852      8.6945318978950947      4.5601578910000002
   164   2      11.026942555996852      8.6945318978950947      7.7137899320000001
   165   1      8.6087235556290391      4.4551046015774887      16.850456731000001
   166   2      10.184655114872617      7.1200969501853431      25.987737755000001
   167   2      10.184655114872617      7.1200969501853431      29.141369796000003
   168   1      12.022603136039175       10.22745224575735      6.1366667990000003
   169   2      18.232900233955952      20.934303522393897            15.273947823
   170   2      18.232900233955952      20.934303522393897      18.427579864000002
   171   1      9.3545058003209274      5.4916243138536229      27.564246663000002
   172   2      14.013924443582741      13.293292652555515      4.5601578910000002
   173   2      14.013924443582741      13.293292652555515      7.7137899320000001
   174   1      7.2810149930845958      1.5809533751060965      16.850456731000001
   175   2      7.6951288603932539      2.2341390278028332      25.987737755000001
   176   2      7.6951288603932539      2.2341390278028332      29.141369796000003
   177   1      15.009585023625066      14.826213000417585      6.1366667990000003
   178   2      16.905191671411671      18.060152295922599            15.273947823
   179   2      16.905191671411671      18.060152295922599      18.427579864000002
   180   1        6.86544046393999     0.60539652935193711      27.564246663000002
   181   2      17.000906331168629      17.892053407215563      4.5601578910000002
   182   2      17.000906331168629      17.892053407215563      7.7137899320000001
   183   1      21.054158945203703      24.862253940765072      16.850456731000001
   184   2      20.306916038675801       23.50336303543142      25.987737755000001
   185   2      20.306916038675801       23.50336303543142      29.141369796000003
   186   1      17.996566911210955      19.424973755077815      6.1366667990000003
   187   2      15.577483108867177      15.186001069451114            15.273947823
   188   2      15.577483108867177      15.186001069451114      18.427579864000002
   189   1      19.477227642222608      21.874620536980427      27.564246663000002
   190   2      19.987888218754549      22.490814161875846      4.5601578910000002
   191   2      19.987888218754549      22.490814161875846      7.7137899320000001
   192   1      19.726450382659262      21.988102714293493      16.850456731000001
   193   2      17.817850702294923      18.617135250929739      25.987737755000001
   194   2      17.817850702294923      18.617135250929739      29.141369796000003
   195   1      20.983548798796843      24.023734509738055      6.1366667990000003
   196   2      14.249774546322682       12.31184984297963            15.273947823
   197   2      14.249774546322682       12.31184984297963      18.427579864000002
   198   1      16.988162305841779      16.988392752478841      27.564246663000002
   199   2      7.8740175916769157     0.93412312440594647      4.5601578910000002
   200   2      7.8740175916769157     0.93412312440594647      7.7137899320000001
   201   1      18.398741820114822      19.113951487822099      16.850456731000001
   202   2      15.328785365913996       13.73090746642805      25.987737755000001
   203   2      15.328785365913996       13.73090746642805      29.141369796000003
   204   1      8.8696781717192383      2.4670434722680183      6.1366667990000003
   205   2      12.923533411122609       9.438544853224542            15.273947823
   206   2      12.923533411122609       9.438544853224542      18.427579864000002
   207   1      14.499096969460897      12.102164967977247      27.564246663000002
   208   2      10.860999479262805      5.5328838790661816      4.5601578910000002
   209   2      10.860999479262805      5.5328838790661816      7.7137899320000001
   210   1      17.071033257570431      16.239800261350801      16.850456731000001
   211   2      12.839720029533163      8.8446796819265519      25.987737755000001
   212   2      12.839720029533163      8.8446796819265519      29.141369796000003
   213   1      11.856660059305129      7.0658042269282539      6.1366667990000003
   214   2      11.595823882707572      6.5627026623568421            15.273947823
   215   2      11.595823882707572      6.5627026623568421      18.427579864000002
   216   1      12.009570714981365      7.2162070455946452      27.564246663000002
   217   2      13.847981366848748      10.131644633726602      4.5601578910000002
   218   2      13.847981366848748      10.131644633726602      7.7137899320000001
   219   1      15.743324695025938      13.365649034879315      16.850456731000001
   220   2      10.350193775053691      3.9587217595439488      25.987737755000001
   221   2      10.350193775053691      3.9587217595439488      29.141369796000003
   222   1      14.843641946891019      11.664564981588489      6.1366667990000003
   223   2      10.268115320163131      3.6885514358854503            15.273947823
   224   2      10.268115320163131      3.6885514358854503      18.427579864000002
   225   1      9.5205053786005411       2.329979261093146      27.564246663000002
   226   2      16.834963254434587      14.730405388386837      4.5601578910000002
   227   2      16.834963254434587      14.730405388386837      7.7137899320000001
   228   1      14.415616132481444      10.491497808408017      16.850456731000001
   229   2      22.961980953336354      25.227945767172631      25.987737755000001
   230   2      22.961980953336354      25.227945767172631      29.141369796000003
   231   1      17.830623834476906      16.263325736248721      6.1366667990000003
   232   2      8.9404067576186375     0.81440020941396507            15.273947823
   233   2      8.9404067576186375     0.81440020941396507      18.427579864000002
   234   1      22.132292556883268      23.599203268721642      27.564246663000002
   235   2      19.821945142020478      19.329166143047072      4.5601578910000002
   236   2      19.821945142020478      19.329166143047072      7.7137899320000001
   237   1      13.089374997281533      7.6181928186528367      16.850456731000001
   238   2      20.472915616955365      20.341717982670851      25.987737755000001
   239   2      20.472915616955365      20.341717982670851      29.141369796000003
   240   1      20.817605722062797      20.862086490909142      6.1366667990000003
   241   2      22.713550709737799      24.095700775072842            15.273947823
   242   2      22.713550709737799      24.095700775072842      18.427579864000002
   243   1      19.643227220502336      18.712975484219957      27.564246663000002
   244   2      22.808927029606362      23.927926897707309      4.5601578910000002
   245   2      22.808927029606362      23.927926897707309      7.7137899320000001
   246   1      11.763133862081622      4.7448878288976548      16.850456731000001
   247   2      17.983850280574547      15.455490198169167      25.987737755000001
   248   2      17.983850280574547      15.455490198169167      29.141369796000003
   249   1      23.804587609648689      25.460847245569379      6.1366667990000003
   250   2      21.385842147193358      21.221549548601455            15.273947823
   251   2      21.385842147193358      21.221549548601455      18.427579864000002
   252   1      17.154161884121336      13.826747699718364      27.564246663000002
   253   2      10.695056402528758      2.3712358602372698      4.5601578910000002
   254   2      10.695056402528758      2.3712358602372698      7.7137899320000001
   255   1      10.435424333666584      1.8690456380299565      16.850456731000001
   256   2      15.494784944193718      10.569262413667666      25.987737755000001
   257   2      15.494784944193718      10.569262413667666      29.141369796000003
   258   1      11.690716982571029      3.9041562080994345      6.1366667990000003
   259   2      20.058133584648914      18.347398322130065            15.273947823
   260   2      20.058133584648914      18.347398322130065      18.427579864000002
   261   1      14.664635629641918      8.9407897773358549      27.564246663000002
   262   2      13.682038290114649      6.9699966148976911      4.5601578910000002
   263   2      13.682038290114649      6.9699966148976911      7.7137899320000001
   264   1      24.208568285785692      25.150346203688557      16.850456731000001
   265   2      13.005258689714131      5.6833044912850657      25.987737755000001
   266   2      13.005258689714131      5.6833044912850657      29.141369796000003
   267   1       14.67769887015697      8.5029169627595778      6.1366667990000003
   268   2       18.73042502210458      15.473247095658666            15.273947823
   269   2       18.73042502210458      15.473247095658666      18.427579864000002
   270   1      12.175570293261034      4.0545619928342616      27.564246663000002
   271   2      16.669020177700563      11.568757369557785      4.5601578910000002
   272   2      16.669020177700563      11.568757369557785      7.7137899320000001
   273   1      22.880859723241198      22.276194977217258      16.850456731000001
   274   2      10.516193353333362     0.79707670678347287      25.987737755000001
   275   2      10.516193353333362     0.79707670678347287      29.141369796000003
   276   1      17.664680757742861      13.101677717419813      6.1366667990000003
   277   2      17.402716459560139      12.599095869187092            15.273947823
   278   2      17.402716459560139      12.599095869187092      18.427579864000002
   279   1      24.787357471543704      25.323786000462757      27.564246663000002
   280   2      19.656002065286483      16.167518124218066      4.5601578910000002
   281   2      19.656002065286483      16.167518124218066      7.7137899320000001
   282   1      21.553151160696757      19.402043750745865      16.850456731000001
   283   2      23.127980531616085      22.066300714412062      25.987737755000001
   284   2      23.127980531616085      22.066300714412062      29.141369796000003
   285   1      20.651662645328802       17.70043847208014      6.1366667990000003
   286   2      16.075007897015645      9.7249446427157906            15.273947823
   287   2      16.075007897015645      9.7249446427157906      18.427579864000002
   288   1      22.298292135162775      20.437558215961069      27.564246663000002
   289   2      22.642983952872374        20.7662788788783      4.5601578910000002
   290   2      22.642983952872374        20.7662788788783      7.7137899320000001
   291   1      20.225442598152263      16.527892524274378      16.850456731000001
   292   2      20.638915195235093      17.180072929910377      25.987737755000001
   293   2      20.638915195235093      17.180072929910377      29.141369796000003
   294   1      23.638644532914693      22.299199226740374      6.1366667990000003
   295   2      14.748766761815789      6.8516396529607038            15.273947823
   296   2      14.748766761815789      6.8516396529607038      18.427579864000002
   297   1      19.809226798781776      15.551330431459387      27.564246663000002
   298   2      25.629965840458258      25.365039633538721      4.5601578910000002
   299   2      25.629965840458258      25.365039633538721      7.7137899320000001
   300   1      18.897734035607872      13.653741297803082      16.850456731000001
   301   2      18.149849858854047      12.293845145408692      25.987737755000001
   302   2      18.149849858854047      12.293845145408692      29.141369796000003
   303   1      11.524773905837037      0.7425081892704305      6.1366667990000003
   304   2      13.422525626615769       3.978334663205525            15.273947823
   305   2      13.422525626615769       3.978334663205525      18.427579864000002
   306   1        17.3201614624009      10.665102646957793      27.564246663000002
   307   2        13.5160952133806      3.8083485960685928      4.5601578910000002
   308   2        13.5160952133806      3.8083485960685928      7.7137899320000001
   309   1      17.570025473063431       10.77959007133169      16.850456731000001
   310   2      15.660323604374737      7.4078872230262736      25.987737755000001
   311   2      15.660323604374737      7.4078872230262736      29.141369796000003
   312   1      14.511755793422925      5.3412689439306664      6.1366667990000003
   313   2      12.094816098200681      1.1024924723377321            15.273947823
   314   2      12.094816098200681      1.1024924723377321      18.427579864000002
   315   1      14.830635207921594      5.7791447245752847      27.564246663000002
   316   2       16.50307710096649      8.4071093507288293      4.5601578910000002
   317   2       16.50307710096649      8.4071093507288293      7.7137899320000001
   318   1      16.242316910518884      7.9054388448602984      16.850456731000001
   319   2        13.1712582679938      2.5216594385245887      25.987737755000001
   320   2        13.1712582679938      2.5216594385245887      29.141369796000003
   321   1      17.498737681008816      9.9400296985908998      6.1366667990000003
   322   2      25.867960050319734      24.383793037996615            15.273947823
   323   2      25.867960050319734      24.383793037996615      18.427579864000002
   324   1      12.341569871540594      0.8929169400736926      27.564246663000002
   325   2      19.490058988552381      13.005870105389064      4.5601578910000002
   326   2      19.490058988552381      13.005870105389064      7.7137899320000001
   327   1      14.914608347974548      5.0312876183889053      16.850456731000001
   328   2      25.783045446276532      23.790883446153082      25.987737755000001
   329   2      25.783045446276532      23.790883446153082      29.141369796000003
   330   1      20.485719568594703      14.538790453251321      6.1366667990000003
   331   2      24.540251487775237      21.509641811525125            15.273947823
   332   2      24.540251487775237      21.509641811525125      18.427579864000002
   333   1      24.953357049823214      22.162140947702188      27.564246663000002
   334   2      22.477040876138272      17.604630860049301      4.5601578910000002
   335   2      22.477040876138272      17.604630860049301      7.7137899320000001
   336   1      13.588367212774532      2.1579826286337256      16.850456731000001
   337   2      23.293980109895593      18.904655661651489      25.987737755000001
   338   2      23.293980109895593      18.904655661651489      29.141369796000003
   339   1      23.472701456180648      19.137551207911464      6.1366667990000003
   340   2        23.2125429252308      18.635490585053734            15.273947823
   341   2        23.2125429252308      18.635490585053734      18.427579864000002
   342   1      22.464291713442389      17.275913163200503      27.564246663000002
   343   2      25.464022763724188      22.203391614709577      4.5601578910000002
   344   2      25.464022763724188      22.203391614709577      7.7137899320000001
   345   1      27.361510199022987      25.437592229896111      16.850456731000001
   346   2      20.804914773514593        14.0184278771499      25.987737755000001
   347   2      20.804914773514593        14.0184278771499      29.141369796000003
   348   1      26.459683343766539      23.736311962571694      6.1366667990000003
   349   2      21.884834362686409      15.761339358582438            15.273947823
   350   2      21.884834362686409      15.761339358582438      18.427579864000002
   351   1       19.97522637706145      12.389685378698816      27.564246663000002
   352   2      13.350152136646555     0.64670057723968144      4.5601578910000002
   353   2      13.350152136646555     0.64670057723968144      7.7137899320000001
   354   1       26.03380163647855      22.563441003424721      16.850456731000001
   355   2      18.315849437133664      9.1322000926481213      25.987737755000001
   356   2      18.315849437133664      9.1322000926481213      29.141369796000003
   357   1      14.345812716688879      2.1796209251017538      6.1366667990000003