(written by ASE)

819 atoms
2 atom types

0.0      30.201710617181842  xlo xhi
0.0       26.15545258759046  ylo yhi
0.0      74.581211905000004  zlo zhi
     15.100856035852178                       0                       0  xy xz yz

Masses

     1      95.949999975317411 # Mo
     2      32.059999991752747 # S

Atoms # atomic

     1   1      4.5613256491014198      7.8984623490214592      16.850456731000001
     2   2      5.5261657797196726      9.4892229163529063            15.273947823
     3   2      5.5261657797196726      9.4892229163529063      18.427579864000002
     4   1      12.636595436668845      21.791420060569251      6.1366667990000003
     5   2      12.151236700236918      20.824590121857717      25.987737755000001
     6   2      12.151236700236918      20.824590121857717      29.141369796000003
     7   2      3.1778174650824731       5.216719228877567      4.5601578910000002
     8   2      3.1778174650824731       5.216719228877567      7.7137899320000001
     9   1      6.6755337165480091      11.147786624638242      27.564246663000002
    10   1      7.5177139681416696      12.554916643846662      16.850456731000001
    11   2      8.5134879740987621      14.087763371516969            15.273947823
    12   2      8.5134879740987621      14.087763371516969      18.427579864000002
    13   1       14.46197362282105      24.378223063737526      6.1366667990000003
    14   2      5.0031956512346811      7.8035222320458466      4.5601578910000002
    15   2      5.0031956512346811      7.8035222320458466      7.7137899320000001
    16   2      10.855228303196803      17.895616089876153      25.987737755000001
    17   2      10.855228303196803      17.895616089876153      29.141369796000003
    18   1       5.349250220200112       8.259307142988364      27.564246663000002
    19   1       10.50503616252063      17.153457099010538      16.850456731000001
    20   2      11.500810168477699      18.686303826680938            15.273947823
    21   2      11.500810168477699      18.686303826680938      18.427579864000002
    22   1      1.1864957731211336     0.80957347931543633      6.1366667990000003
    23   2      9.4963975218063137      15.076020722850062      25.987737755000001
    24   2      9.4963975218063137      15.076020722850062      29.141369796000003
    25   2      6.8285738373869416      10.390325235214217      4.5601578910000002
    26   2      6.8285738373869416      10.390325235214217      7.7137899320000001
    27   1      4.0195281290051312      5.3998906174282464      27.564246663000002
    28   1      13.492358356899572      21.751997554174508      16.850456731000001
    29   2      14.486201667856204      23.283732164556966            15.273947823
    30   2      14.486201667856204      23.283732164556966      18.427579864000002
    31   1       3.011873959273287      3.3963764824836216      6.1366667990000003
    32   2      8.1689779325910106      12.201736023346278      25.987737755000001
    33   2      8.1689779325910106      12.201736023346278      29.141369796000003
    34   2      8.6539520235390945      12.977128238382402      4.5601578910000002
    35   2      8.6539520235390945      12.977128238382402      7.7137899320000001
    36   1      2.6921085397899884       2.525605917924556      27.564246663000002
    37   1      1.3768925629162792     0.19620000199740251      16.850456731000001
    38   2      2.3726665688732926      1.7290467296678032            15.273947823
    39   2      2.3726665688732926      1.7290467296678032      18.427579864000002
    40   1      4.8372521454255475      5.9831794856519931      6.1366667990000003
    41   2      6.8415583433757607      9.3274513238425882      25.987737755000001
    42   2      6.8415583433757607      9.3274513238425882      29.141369796000003
    43   2      10.479330209691357      15.563931241550774      4.5601578910000002
    44   2      10.479330209691357      15.563931241550774      7.7137899320000001
    45   1      16.465544986426544      25.806773806011144      27.564246663000002
    46   1      4.3642147572953629       4.794740457161466      16.850456731000001
    47   2      5.3599887632523098      6.3275871848316809            15.273947823
    48   2      5.3599887632523098      6.3275871848316809      18.427579864000002
    49   1      6.6626303315777555      8.5699824888202709      6.1366667990000003
    50   2      5.5129723450480776      6.4538400161364704      25.987737755000001
    51   2      5.5129723450480776      6.4538400161364704      29.141369796000003
    52   2      12.304708395843617       18.15073424471915      4.5601578910000002
    53   2      12.304708395843617       18.15073424471915      7.7137899320000001
    54   1      15.138125397211398      22.932489106507361      27.564246663000002
    55   1      7.3515369516743796      9.3932809123255296      16.850456731000001
    56   2      8.3473109576313789      10.926127639995652            15.273947823
    57   2      8.3473109576313789      10.926127639995652      18.427579864000002
    58   1      8.4880085177299627      11.156785491988551      6.1366667990000003
    59   2      4.1855527558326671      3.5795553166326868      25.987737755000001
    60   2      4.1855527558326671      3.5795553166326868      29.141369796000003
    61   2      14.130086581995769      20.737537247887328      4.5601578910000002
    62   2      14.130086581995769      20.737537247887328      7.7137899320000001
    63   1      13.810705807996257      20.058204407003579      27.564246663000002
    64   1      10.338859146053247      13.991821367489219      16.850456731000001
    65   1       10.31338670388217      13.743588495156827      6.1366667990000003
    66   2       11.34043529708957      15.510190866725001            15.273947823
    67   2       11.34043529708957      15.510190866725001      18.427579864000002
    68   2      2.8604296053480951      0.6876981651153109      25.987737755000001
    69   2      2.8604296053480951      0.6876981651153109      29.141369796000003
    70   2      15.955464768147976      23.324340251055609      4.5601578910000002
    71   2      15.955464768147976      23.324340251055609      7.7137899320000001
    72   1      12.483286218780952      17.183919707499793      27.564246663000002
    73   1      13.328117065471725      18.582567149792094      16.850456731000001
    74   2      14.321955346389277      20.123208550323501            15.273947823
    75   2      14.321955346389277      20.123208550323501      18.427579864000002
    76   1      12.138764890034379      16.330391498325106      6.1366667990000003
    77   2      16.631569613254293        23.9864385052154      25.987737755000001
    78   2      16.631569613254293        23.9864385052154      29.141369796000003
    79   2      17.780842954300184      25.911143254223884      4.5601578910000002
    80   2      17.780842954300184      25.911143254223884      7.7137899320000001
    81   1      11.155866629565542      14.309635007996013      27.564246663000002
    82   1      16.311571582301152      23.190016858066731      16.850456731000001
    83   2      17.307345588258165      24.722863585736857            15.273947823
    84   2      17.307345588258165      24.722863585736857      18.427579864000002
    85   1      13.964143076186584      18.917194501493384      6.1366667990000003
    86   2      15.304150024039149      21.112153805711614      25.987737755000001
    87   2      15.304150024039149      21.112153805711614      29.141369796000003
    88   2      4.5053651046002141      2.3424936698017018      4.5601578910000002
    89   2      4.5053651046002141      2.3424936698017018      7.7137899320000001
    90   1      9.8284470403502926      11.435350308492042      27.564246663000002
    91   1      4.1980377408279193      1.6331047256401476      16.850456731000001
    92   2       5.193811746785066      3.1659514533104547            15.273947823
    93   2       5.193811746785066      3.1659514533104547      18.427579864000002
    94   1      15.789521262338845      21.503997504661758      6.1366667990000003
    95   2      13.976730434823795      18.237869106207832      25.987737755000001
    96   2      13.976730434823795      18.237869106207832      29.141369796000003
    97   2      6.3307432907524746      4.9292966729700733      4.5601578910000002
    98   2      6.3307432907524746      4.9292966729700733      7.7137899320000001
    99   1       8.499861042022502      8.5617390007860159      27.564246663000002
   100   1      7.2046945504259465      6.1937790078628101      16.850456731000001
   101   2      8.1811339411640152      7.7644919084744259            15.273947823
   102   2      8.1811339411640152      7.7644919084744259      18.427579864000002
   103   1      17.614899448491052      24.090800507830039      6.1366667990000003
   104   2      12.649310845608543      15.363584406703955      25.987737755000001
   105   2      12.649310845608543      15.363584406703955      29.141369796000003
   106   2      8.1561214769046817      7.5160996761383512      4.5601578910000002
   107   2      8.1561214769046817      7.5160996761383512      7.7137899320000001
   108   1       7.172441452807254      5.6874543012821404      27.564246663000002
   109   1      10.197817632374601      10.780068932129534      16.850456731000001
   110   2      11.168456135543027      12.363032363638304            15.273947823
   111   2      11.168456135543027      12.363032363638304      18.427579864000002
   112   1      4.3394215987910814     0.52215092340785019      6.1366667990000003
   113   2       11.32189125639324      12.489299707200173      25.987737755000001
   114   2       11.32189125639324      12.489299707200173      29.141369796000003
   115   2      9.9814996630568338      10.102902679306538      4.5601578910000002
   116   2      9.9814996630568338      10.102902679306538      7.7137899320000001
   117   1        5.84502186359195      2.8131696017783576      27.564246663000002
   118   1      13.160004323964973      15.428726091131963      16.850456731000001
   119   2      14.155778329922049      16.961572818802274            15.273947823
   120   2      14.155778329922049      16.961572818802274      18.427579864000002
   121   1      6.1647997849432885      3.1089539265761275      6.1366667990000003
   122   2      9.9944716671778284      9.6150150076962966      25.987737755000001
   123   2      9.9944716671778284      9.6150150076962966      29.141369796000003
   124   2      11.806877849209096      12.689705682474909      4.5601578910000002
   125   2      11.806877849209096      12.689705682474909      7.7137899320000001
   126   1      19.618458310228771      26.094337489865037      27.564246663000002
   127   1       16.14539456583379      20.028381126545415      16.850456731000001
   128   2      17.141168571790811      21.561227854215627            15.273947823
   129   2      17.141168571790811      21.561227854215627      18.427579864000002
   130   1      7.9901779710954957      5.6957569297444062      6.1366667990000003
   131   2      8.6658856688502013      6.7414036999902702      25.987737755000001
   132   2      8.6658856688502013      6.7414036999902702      29.141369796000003
   133   2      13.632256035361303      15.276508685643186      4.5601578910000002
   134   2      13.632256035361303      15.276508685643186      7.7137899320000001
   135   1      18.291038721013681      23.220052790361255      27.564246663000002
   136   1      19.132716760212809      24.626921581709389      16.850456731000001
   137   2      5.0276347303175681   0.0043157217890434788            15.273947823
   138   2      5.0276347303175681   0.0043157217890434788      18.427579864000002
   139   1      9.8155561572477019      8.2825599329126849      6.1366667990000003
   140   2      7.3384660796347898      3.8671190004863947      25.987737755000001
   141   2      7.3384660796347898      3.8671190004863947      29.141369796000003
   142   2       15.45763422151351      17.863311688811464      4.5601578910000002
   143   2       15.45763422151351      17.863311688811464      7.7137899320000001
   144   1      16.963619131798218       20.34576809085738      27.564246663000002
   145   1      7.0191829187395651      3.0700094492827064      16.850456731000001
   146   2      8.0149569246967189      4.6028561769531073            15.273947823
   147   2      8.0149569246967189      4.6028561769531073      18.427579864000002
   148   1      11.640934343399909      10.869362936080963      6.1366667990000003
   149   2      6.0110464904196474     0.99283430098261138      25.987737755000001
   150   2      6.0110464904196474     0.99283430098261138      29.141369796000003
   151   2      17.283012407665719       20.45011469197965      4.5601578910000002
   152   2      17.283012407665719       20.45011469197965      7.7137899320000001
   153   1      15.636199542582913      17.471483391353591      27.564246663000002
   154   1      10.006505113118527      7.6685499044466772      16.850456731000001
   155   2      11.002279119075736      9.2013966321170777            15.273947823
   156   2      11.002279119075736      9.2013966321170777      18.427579864000002
   157   1       13.46631252955217      13.456165939249335      6.1366667990000003
   158   2      19.784482937056467      24.274002189069389      25.987737755000001
   159   2      19.784482937056467      24.274002189069389      29.141369796000003
   160   2       19.10839059381798      23.036917695148116      4.5601578910000002
   161   2       19.10839059381798      23.036917695148116      7.7137899320000001
   162   1      14.308779953367772      14.597198691849814      27.564246663000002
   163   1      12.993827307497664      12.267090359610741      16.850456731000001
   164   1      15.291690715704403      16.042968942417659      6.1366667990000003
   165   2      14.007002718653716      13.765412192126409            15.273947823
   166   2      14.007002718653716      13.765412192126409      18.427579864000002
   167   2      18.457063347841217      21.399717489565507      25.987737755000001
   168   2      18.457063347841217      21.399717489565507      29.141369796000003
   169   2       20.93376877997013      25.623720698316301      4.5601578910000002
   170   2       20.93376877997013      25.623720698316301      7.7137899320000001
   171   1      12.982478267272635      11.700606375990894      27.564246663000002
   172   1      15.979217549366412      16.866745395024097      16.850456731000001
   173   2       16.97499155532342      18.399592122694312            15.273947823
   174   2       16.97499155532342      18.399592122694312      18.427579864000002
   175   1      17.117068901856587      18.629771945585894      6.1366667990000003
   176   2      17.129643758625914      18.525432790061537      25.987737755000001
   177   2      17.129643758625914      18.525432790061537      29.141369796000003
   178   2      7.6582909302701614      2.0550711138941149      4.5601578910000002
   179   2      7.6582909302701614      2.0550711138941149      7.7137899320000001
   180   1      11.652774365824625      8.8493026846398166      27.564246663000002
   181   1      18.966539743745447      21.465285850187975      16.850456731000001
   182   2       19.96231374970251      22.998132577858375            15.273947823
   183   2       19.96231374970251      22.998132577858375      18.427579864000002
   184   1      18.942447088008791      21.216574948754172      6.1366667990000003
   185   2      15.802224169410612      15.651148090557847      25.987737755000001
   186   2      15.802224169410612      15.651148090557847      29.141369796000003
   187   2      9.4836691164224209      4.6418741170623932      4.5601578910000002
   188   2      9.4836691164224209      4.6418741170623932      7.7137899320000001
   189   1      10.325354776609377      5.9750179851360334      27.564246663000002
   190   1       21.95386193812444      26.063826305352038      16.850456731000001
   191   2      7.8487799082292744      1.4412204454316953            15.273947823
   192   2      7.8487799082292744      1.4412204454316953      18.427579864000002
   193   1      20.767825274160998       23.80337795192245      6.1366667990000003
   194   2      14.474804580195416      12.776863391054068      25.987737755000001
   195   2      14.474804580195416      12.776863391054068      29.141369796000003
   196   2       11.30904730257463      7.2286771202306737      4.5601578910000002
   197   2       11.30904730257463      7.2286771202306737      7.7137899320000001
   198   1      8.9979351873940736      3.1007332856322507      27.564246663000002
   199   1      9.8403280966512714      4.5069141729254518      16.850456731000001
   200   2      10.836102102608224      6.0397609005956676            15.273947823
   201   2      10.836102102608224      6.0397609005956676      18.427579864000002
   202   1      7.4923474244610553     0.23472836750030987      6.1366667990000003
   203   2       13.14738499098006      9.9025786915501914      25.987737755000001
   204   2       13.14738499098006      9.9025786915501914      29.141369796000003
   205   2      13.134425488726837      9.8154801233989506      4.5601578910000002
   206   2      13.134425488726837      9.8154801233989506      7.7137899320000001
   207   1      7.6705155981787687     0.22644858612846674      27.564246663000002
   208   1      12.827650291030235      9.1054546280893298      16.850456731000001
   209   2      13.823424296987376      10.638301355759731            15.273947823
   210   2      13.823424296987376      10.638301355759731      18.427579864000002
   211   1      9.3177256106131807      2.8215313706684486      6.1366667990000003
   212   2      11.818798992652322      7.0289673838441633      25.987737755000001
   213   2      11.818798992652322      7.0289673838441633      29.141369796000003
   214   2      14.959803674879096      12.402283126567323      4.5601578910000002
   215   2      14.959803674879096      12.402283126567323      7.7137899320000001
   216   1      21.443952044815802      23.507616474215052      27.564246663000002
   217   1      15.836240310648321      13.662787632525461      16.850456731000001
   218   2      16.808814538855998      15.237956391172903            15.273947823
   219   2      16.808814538855998      15.237956391172903      18.427579864000002
   220   1      11.143103796765388      5.4083343738367269      6.1366667990000003
   221   2       10.49365765242071      4.1289973981179351      25.987737755000001
   222   2       10.49365765242071      4.1289973981179351      29.141369796000003
   223   2      16.785181861031251       14.98908612973551      4.5601578910000002
   224   2      16.785181861031251       14.98908612973551      7.7137899320000001
   225   1      20.116532455600503      20.633331774711273      27.564246663000002
   226   1      18.800362727278067      18.303650118666656      16.850456731000001
   227   2      19.796136733235215      19.836496846337056            15.273947823
   228   2      19.796136733235215      19.836496846337056      18.427579864000002
   229   1      12.968481982917703      7.9951373770051921      6.1366667990000003
   230   2       9.163959814221716      1.2803979848364113      25.987737755000001
   231   2       9.163959814221716      1.2803979848364113      29.141369796000003
   232   2      18.610560047183458      17.575889132903878      4.5601578910000002
   233   2      18.610560047183458      17.575889132903878      7.7137899320000001
   234   1      18.789112866385143      17.759047075207491      27.564246663000002
   235   1      21.787684921657078      22.902190573830719      16.850456731000001
   236   1      14.793860169069855      10.581940380173377      6.1366667990000003
   237   2       22.81439531797233      24.372670066765135            15.273947823
   238   2       22.81439531797233      24.372670066765135      18.427579864000002
   239   2      22.937396260858641       24.56156587292309      25.987737755000001
   240   2      22.937396260858641       24.56156587292309      29.141369796000003
   241   2      20.435938233335666      20.162692136072156      4.5601578910000002
   242   2      20.435938233335666      20.162692136072156      7.7137899320000001
   243   1      17.461693277169896      14.884762375703612      27.564246663000002
   244   1      9.6741510801839823      1.3452784414042256      16.850456731000001
   245   2      10.669925086140982      2.8781251690744409            15.273947823
   246   2      10.669925086140982      2.8781251690744409      18.427579864000002
   247   1      16.619238355222119      13.168743383341656      6.1366667990000003
   248   2      21.609976671643448      21.687281173419404      25.987737755000001
   249   2      21.609976671643448      21.687281173419404      29.141369796000003
   250   2      22.261316419487873      22.749495139240345      4.5601578910000002
   251   2      22.261316419487873      22.749495139240345      7.7137899320000001
   252   1      16.134273687954536       12.01047767619983      27.564246663000002
   253   1      12.661473274562852      5.9438188965680103      16.850456731000001
   254   2      13.657247280520005      7.4766656242384109            15.273947823
   255   2      13.657247280520005      7.4766656242384109      18.427579864000002
   256   1      18.444616541374323      15.755546386509931      6.1366667990000003
   257   2      20.282557082428145      18.812996473915526      25.987737755000001
   258   2      20.282557082428145      18.812996473915526      29.141369796000003
   259   2      24.086694605640133      25.336298142408715      4.5601578910000002
   260   2      24.086694605640133      25.336298142408715      7.7137899320000001
   261   1      14.805687689626909      9.1368663684938038      27.564246663000002
   262   1      15.646863516431694       10.54347393198146      16.850456731000001
   263   2       16.64263752238876      12.076320659651859            15.273947823
   264   2       16.64263752238876      12.076320659651859      18.427579864000002
   265   1      20.269994727526477      18.342349389678212      6.1366667990000003
   266   2      18.955137493212842      15.938711774411745      25.987737755000001
   267   2      18.955137493212842      15.938711774411745      29.141369796000003
   268   2      10.811216755940162      1.7676485579865295      4.5601578910000002
   269   2      10.811216755940162      1.7676485579865295      7.7137899320000001
   270   1      13.478268100411551      6.2625816689899256      27.564246663000002
   271   1      18.634185710810684      15.142014387145432      16.850456731000001
   272   2      19.629959716767768      16.674861114815645            15.273947823
   273   2      19.629959716767768      16.674861114815645      18.427579864000002
   274   1      22.095372913678737      20.929152392846493      6.1366667990000003
   275   2      17.627717903997482      13.064427074907865      25.987737755000001
   276   2      17.627717903997482      13.064427074907865      29.141369796000003
   277   2      12.636594942092369      4.3544515611548062      4.5601578910000002
   278   2      12.636594942092369      4.3544515611548062      7.7137899320000001
   279   1      12.150848511196195      3.3882969694860505      27.564246663000002
   280   1      21.621507905189702        19.7405548423094      16.850456731000001
   281   2      22.617281911146726      21.273401569979612            15.273947823
   282   2      22.617281911146726      21.273401569979612      18.427579864000002
   283   1      23.920751099830948      23.515955396014771      6.1366667990000003
   284   2      16.300298314782289      10.190142375404085      25.987737755000001
   285   2      16.300298314782289      10.190142375404085      29.141369796000003
   286   2      14.461973128244578      6.9412545643230859      4.5601578910000002
   287   2      14.461973128244578      6.9412545643230859      7.7137899320000001
   288   1      10.823428921980945     0.51401226998226812      27.564246663000002
   289   1      24.608830099568728      24.339095297473278      16.850456731000001
   290   2      25.604604105525869      25.871942025143674            15.273947823
   291   2      25.604604105525869      25.871942025143674      18.427579864000002
   292   1      25.746129285983155      26.102758399183141      6.1366667990000003
   293   2      14.971712316454552      7.3165310676979649      25.987737755000001
   294   2      14.971712316454552      7.3165310676979649      29.141369796000003
   295   2      16.287351314396783      9.5280575674913663      4.5601578910000002
   296   2      16.287351314396783      9.5280575674913663      7.7137899320000001
   297   1      24.596865368617873      23.795180158068948      27.564246663000002
   298   1      12.510764453274662       2.750999547678862      16.850456731000001
   299   2      13.491070264052635      4.3150298927170923            15.273947823
   300   2      13.491070264052635      4.3150298927170923      18.427579864000002
   301   1      12.470651436283184      2.5341088147608621      6.1366667990000003
   302   2       13.64429272723925      4.4422463681941808      25.987737755000001
   303   2       13.64429272723925      4.4422463681941808      29.141369796000003
   304   2      18.112729500548991      12.114860570659642      4.5601578910000002
   305   2      18.112729500548991      12.114860570659642      7.7137899320000001
   306   1      23.269445779402464       20.92089545856507      27.564246663000002
   307   1      15.482618452474698      7.3807236202108486      16.850456731000001
   308   2      16.476460505921388      8.9146849281304501            15.273947823
   309   2      16.476460505921388      8.9146849281304501      18.427579864000002
   310   1      14.296029622435389      5.1209118179291409      6.1366667990000003
   311   2         12.316873138024      1.5679616686903981      25.987737755000001
   312   2         12.316873138024      1.5679616686903981      29.141369796000003
   313   2      19.938107686701251      14.701663573828014      4.5601578910000002
   314   2      19.938107686701251      14.701663573828014      7.7137899320000001
   315   1       21.94202619018732      18.046610759061384      27.564246663000002
   316   1      18.468008694343318      11.980378655624113      16.850456731000001
   317   2      19.463782700300413       13.51322538329442            15.273947823
   318   2      19.463782700300413       13.51322538329442      18.427579864000002
   319   1      16.121407808587684       7.707714821097662      6.1366667990000003
   320   2      26.090309584660716      24.849129556777079      25.987737755000001
   321   2      26.090309584660716      24.849129556777079      29.141369796000003
   322   2      21.763485872853458      17.288466576996292      4.5601578910000002
   323   2      21.763485872853458      17.288466576996292      7.7137899320000001
   324   1      20.616875755082216       15.14258435623063      27.564246663000002
   325   1      21.486266021570891      16.518778573589564      16.850456731000001
   326   2      22.451104894679283      18.111765838458204            15.273947823
   327   2      22.451104894679283      18.111765838458204      18.427579864000002
   328   1      17.946785994739855      10.294517824265789      6.1366667990000003
   329   2      24.762889995445516      21.974844857273112      25.987737755000001
   330   2      24.762889995445516      21.974844857273112      29.141369796000003
   331   2      23.588864059005612      19.875269580164481      4.5601578910000002
   332   2      23.588864059005612      19.875269580164481      7.7137899320000001
   333   1      19.287187011756821      12.298041360053722      27.564246663000002
   334   1      24.442653083101355      21.177459565951963      16.850456731000001
   335   2        25.4384270890585      22.710306293622359            15.273947823
   336   2        25.4384270890585      22.710306293622359      18.427579864000002
   337   1      19.772164180892066       12.88132082743407      6.1366667990000003
   338   2      23.435470406230262      19.100560157769419      25.987737755000001
   339   2      23.435470406230262      19.100560157769419      29.141369796000003
   340   2      25.414242245157872      22.462072583332848      4.5601578910000002
   341   2      25.414242245157872      22.462072583332848      7.7137899320000001
   342   1      17.959767422541354      9.4237566605498451      27.564246663000002
   343   1      27.429975277480299      25.776000021115927      16.850456731000001
   344   1      21.597542367044319      15.468123830602522      6.1366667990000003
   345   2      13.351961960393766      1.0999361795705984            15.273947823
   346   2      13.351961960393766      1.0999361795705984      18.427579864000002
   347   2      22.108050817015016      16.226275458265544      25.987737755000001
   348   2      22.108050817015016      16.226275458265544      29.141369796000003
   349   2       27.23962043131008      25.048875586501129      4.5601578910000002
   350   2       27.23962043131008      25.048875586501129      7.7137899320000001
   351   1       16.63117839258906      6.5487932138088567      27.564246663000002
   352   1      15.316441436007267      4.2190878886895282      16.850456731000001
   353   2       16.31221544196428      5.7519346163596508            15.273947823
   354   2       16.31221544196428      5.7519346163596508      18.427579864000002
   355   1      23.422920553196477      18.054926833770622      6.1366667990000003
   356   2       20.78063122779966       13.35199075876176      25.987737755000001
   357   2       20.78063122779966       13.35199075876176      29.141369796000003