(written by ASE)

1197 atoms
2 atom types

0.0      36.512088195110522  xlo xhi
0.0      31.620399906846377  ylo yhi
0.0      74.581211905000004  zlo zhi
     18.256046883434301                       0                       0  xy xz yz

Masses

     1      95.949999975317411 # Mo
     2      32.059999991752747 # S

Atoms # atomic

     1   2      3.0466518527242648      5.2760924038486996            15.273947823
     2   2      3.0466518527242648      5.2760924038486996      18.427579864000002
     3   1      8.6278933648514329      14.941896848256707      16.850456731000001
     4   2      9.8417937249649849      17.022711690068363      4.5601578910000002
     5   2      9.8417937249649849      17.022711690068363      7.7137899320000001
     6   1      2.4295641167497797      4.0258554848969919      6.1366667990000003
     7   2      8.3266104064150461      14.120712648566018      25.987737755000001
     8   2      8.3266104064150461      14.120712648566018      29.141369796000003
     9   1      10.310625050573213      17.554724894418204      16.850456731000001
    10   1      15.875994027368796      27.038163935854691      27.564246663000002
    11   2       4.819485792679564       7.886672415257868            15.273947823
    12   2       4.819485792679564       7.886672415257868      18.427579864000002
    13   2      5.8611518814209944      9.6525432907282092      4.5601578910000002
    14   2      5.8611518814209944      9.6525432907282092      7.7137899320000001
    15   1      16.704969156640129      28.276086992403293      6.1366667990000003
    16   2      12.718899366631062       21.25299712612798      25.987737755000001
    17   2      12.718899366631062       21.25299712612798      29.141369796000003
    18   1      12.095212619682842      20.169835314231012      16.850456731000001
    19   1      2.0122361041502494      2.5500485065702678      27.564246663000002
    20   2      6.6040733617891902      10.501782835070676            15.273947823
    21   2      6.6040733617891902      10.501782835070676      18.427579864000002
    22   2      1.8805100378769883      2.2823748913881405      4.5601578910000002
    23   2      1.8805100378769883      2.2823748913881405      7.7137899320000001
    24   1       12.72432731309609      20.905918593063163      6.1366667990000003
    25   2      17.111373404231358      28.385391674308426      25.987737755000001
    26   2      17.111373404231358      28.385391674308426      29.141369796000003
    27   1      13.879800188792466      22.784945734043827      16.850456731000001
    28   1      6.4048952197426301      9.6827732678192042      27.564246663000002
    29   2      8.3886609308988156        13.1168932548836            15.273947823
    30   2      8.3886609308988156        13.1168932548836      18.427579864000002
    31   2      16.155915077767258      26.532606398894409      4.5601578910000002
    32   2      16.155915077767258      26.532606398894409      7.7137899320000001
    33   1      8.7436854695521173      13.535750193723038      6.1366667990000003
    34   2      3.2476154810128794      3.8972762450238925      25.987737755000001
    35   2      3.2476154810128794      3.8972762450238925      29.141369796000003
    36   1      15.664387757902029      25.400056153856749      16.850456731000001
    37   1      10.797369257342995      16.815167815999537      27.564246663000002
    38   2      10.173248500008444      15.732003674696411            15.273947823
    39   2      10.173248500008444      15.732003674696411      18.427579864000002
    40   2      12.175273234223242      19.162437999554214      4.5601578910000002
    41   2      12.175273234223242      19.162437999554214      7.7137899320000001
    42   1      4.7630436260080771      6.1655817943829163      6.1366667990000003
    43   2      7.6402745966051304      11.030001006272828      25.987737755000001
    44   2      7.6402745966051304      11.030001006272828      29.141369796000003
    45   1      17.448975327011784      28.015166573669333      16.850456731000001
    46   1      15.189658217558552      23.947452293561614      27.564246663000002
    47   2      11.957836069118004      18.347114094509223            15.273947823
    48   2      11.957836069118004      18.347114094509223      18.427579864000002
    49   2      8.1946313906792767      11.792269600214105      4.5601578910000002
    50   2      8.1946313906792767      11.792269600214105      7.7137899320000001
    51   1      19.038448665898411      30.415813301889187      6.1366667990000003
    52   2      12.032748634205626      18.162395554453163      25.987737755000001
    53   2      12.032748634205626      18.162395554453163      29.141369796000003
    54   1      19.233562896121281      30.630276993482259      16.850456731000001
    55   1      19.581947177774438      31.079736771123571      27.564246663000002
    56   2      13.742423638227629      20.962224514322145            15.273947823
    57   2      13.742423638227629      20.962224514322145      18.427579864000002
    58   2      4.2139895471352613      4.4221012008740228      4.5601578910000002
    59   2      4.2139895471352613      4.4221012008740228      7.7137899320000001
    60   1      15.057806822354401      23.045644902548993      6.1366667990000003
    61   2      16.425037594421312      25.294680032015236      25.987737755000001
    62   2      16.425037594421312      25.294680032015236      29.141369796000003
    63   1      2.7601450978194353       1.626119232557248      16.850456731000001
    64   1        5.71837433194057      6.5917314124576363      27.564246663000002
    65   2      15.527011207337322      23.577334934134729            15.273947823
    66   2      15.527011207337322      23.577334934134729      18.427579864000002
    67   2      18.489394587025565      28.672332708380239      4.5601578910000002
    68   2      18.489394587025565      28.672332708380239      7.7137899320000001
    69   1      11.077164978810448      15.675476503208966      6.1366667990000003
    70   2      2.5612796712026391     0.80656460273081443      25.987737755000001
    71   2      2.5612796712026391     0.80656460273081443      29.141369796000003
    72   1      4.5447326669289971      4.2412296523701718      16.850456731000001
    73   1      10.111033447532821      13.724456173706347      27.564246663000002
    74   2      17.311598776446822      26.192445353947765            15.273947823
    75   2      17.311598776446822      26.192445353947765      18.427579864000002
    76   2      14.508752743481532      21.302164309040123      4.5601578910000002
    77   2      14.508752743481532      21.302164309040123      7.7137899320000001
    78   1      7.0965231352663363      8.3053081038687697      6.1366667990000003
    79   2      6.9537537088030703      7.9389591509112609      25.987737755000001
    80   2      6.9537537088030703      7.9389591509112609      29.141369796000003
    81   1      6.3293202360386234      6.8563400721829817      16.850456731000001
    82   1      14.503322407748703      20.856740651268307      27.564246663000002
    83   2      19.096186345556642      28.807555773760352            15.273947823
    84   2      19.096186345556642      28.807555773760352      18.427579864000002
    85   2      10.528110899937534      13.931995909699959      4.5601578910000002
    86   2      10.528110899937534      13.931995909699959      7.7137899320000001
    87   1      3.1158812917224017      0.9351397045286024      6.1366667990000003
    88   2      11.346412824395514      15.071683912160086      25.987737755000001
    89   2      11.346412824395514      15.071683912160086      29.141369796000003
    90   1      8.1139078051482496      9.4714504919957925      16.850456731000001
    91   1      18.895611367964584      27.989025128830267      27.564246663000002
    92   2      20.880773914666136      31.422666193573274            15.273947823
    93   2      20.880773914666136      31.422666193573274      18.427579864000002
    94   2      6.5474690563935676      6.5618275103598478      4.5601578910000002
    95   2      6.5474690563935676      6.5618275103598478      7.7137899320000001
    96   1      17.391286331612687      25.185371212034951      6.1366667990000003
    97   2      15.738701784611205      22.203968389721929      25.987737755000001
    98   2      15.738701784611205      22.203968389721929      29.141369796000003
    99   1      9.8984953742578767      12.086560911808604      16.850456731000001
   100   1      5.0320385221305246      3.5010197701644468      27.564246663000002
   101   2      4.4073561163642276       2.418508432648379            15.273947823
   102   2      4.4073561163642276       2.418508432648379      18.427579864000002
   103   2      20.822874096283854      30.812059017866034      4.5601578910000002
   104   2      20.822874096283854      30.812059017866034      7.7137899320000001
   105   1      13.410644488068714      17.815202812694793      6.1366667990000003
   106   2      20.130990744827088      29.336252867284117      25.987737755000001
   107   2      20.130990744827088      29.336252867284117      29.141369796000003
   108   1      11.683082943367502      14.701671331621414      16.850456731000001
   109   1      9.4246976377229057      10.633744531413159      27.564246663000002
   110   2      6.1919436854737233      5.0336188524611902            15.273947823
   111   2      6.1919436854737233      5.0336188524611902      18.427579864000002
   112   2      16.842232252739851      23.441890618525978      4.5601578910000002
   113   2      16.842232252739851      23.441890618525978      7.7137899320000001
   114   1      9.4300026445246896      10.445034413354623      6.1366667990000003
   115   2      6.2674178989931537       4.848247508618071      25.987737755000001
   116   2      6.2674178989931537       4.848247508618071      29.141369796000003
   117   1      13.467670512477129      17.316781751434338      16.850456731000001
   118   1      13.816986597938593      17.766029008975231      27.564246663000002
   119   2      7.9765312545834153      7.6487292722739992            15.273947823
   120   2      7.9765312545834153      7.6487292722739992      18.427579864000002
   121   2      12.861590409195808      16.071722219185844      4.5601578910000002
   122   2      12.861590409195808      16.071722219185844      7.7137899320000001
   123   1      5.4493608009806671      3.0748660140144701      6.1366667990000003
   124   2       10.66007701458547      11.980972269866895      25.987737755000001
   125   2       10.66007701458547      11.980972269866895      29.141369796000003
   126   1      15.252258081586689      19.931892171247146      16.850456731000001
   127   1      18.209460635539024      24.898423557155677      27.564246663000002
   128   2      9.7611188236931063       10.26383969208681            15.273947823
   129   2      9.7611188236931063       10.26383969208681      18.427579864000002
   130   2      8.8809485656518579      8.7015538198456461      4.5601578910000002
   131   2      8.8809485656518579      8.7015538198456461      7.7137899320000001
   132   1      19.724765840870944      27.325097521520753      6.1366667990000003
   133   2      15.052365974801223      19.113256747428853      25.987737755000001
   134   2      15.052365974801223      19.113256747428853      29.141369796000003
   135   1      17.036845650696318      22.547002591059844      16.850456731000001
   136   1      4.3457027123203478     0.41030812787125626      27.564246663000002
   137   2      11.545706392802604      12.878950111899735            15.273947823
   138   2      11.545706392802604      12.878950111899735      18.427579864000002
   139   2      4.9003067221078425      1.3313854205055631      4.5601578910000002
   140   2      4.9003067221078425      1.3313854205055631      7.7137899320000001
   141   1      15.744123997326929      19.954929122180559      6.1366667990000003
   142   2      19.444840012401592      26.245651295609189      25.987737755000001
   143   2      19.444840012401592      26.245651295609189      29.141369796000003
   144   1      18.821433219806007      25.162113010872655      16.850456731000001
   145   1      8.7383618279127937      7.5430328891200791      27.564246663000002
   146   2      13.330293961912297      15.494060531712543            15.273947823
   147   2      13.330293961912297      15.494060531712543      18.427579864000002
   148   2      19.175711761998226      25.581616928011972      4.5601578910000002
   149   2      19.175711761998226      25.581616928011972      7.7137899320000001
   150   1      11.763482153782997      12.584760722840562      6.1366667990000003
   151   2      5.5810820891831074       1.757535866324881      25.987737755000001
   152   2      5.5810820891831074       1.757535866324881      29.141369796000003
   153   1      20.606020788915568      27.777223430685467      16.850456731000001
   154   1      13.130835865513159      14.675427437300415      27.564246663000002
   155   2      15.114881531021986      18.109170951525243            15.273947823
   156   2      15.114881531021986      18.109170951525243      18.427579864000002
   157   2      15.195069918454209      18.211448528671806      4.5601578910000002
   158   2      15.195069918454209      18.211448528671806      7.7137899320000001
   159   1      7.7828403102389325      5.2145923235002263      6.1366667990000003
   160   2      9.9737412047752283      8.8902606275738165      25.987737755000001
   161   2      9.9737412047752283      8.8902606275738165      29.141369796000003
   162   1      22.388649874047964       30.39346557660684      16.850456731000001
   163   1      17.523124825728914      21.807711914862377      27.564246663000002
   164   2      16.899469100131547      20.724281371338051            15.273947823
   165   2      16.899469100131547      20.724281371338051      18.427579864000002
   166   2      11.214428074910163      10.841280129331583      4.5601578910000002
   167   2      11.214428074910163      10.841280129331583      7.7137899320000001
   168   1      22.058245350129223       29.46482383100653      6.1366667990000003
   169   2      14.366215242375723      16.022655175754153      25.987737755000001
   170   2      14.366215242375723      16.022655175754153      29.141369796000003
   171   1      5.9171905597232861      1.3881760895732687      16.850456731000001
   172   1      21.915413785944601      28.939996392424444      27.564246663000002
   173   2      18.684056669241173      23.339391791150863            15.273947823
   174   2      18.684056669241173      23.339391791150863      18.427579864000002
   175   2      7.2337862313661239      3.4711117299913465      4.5601578910000002
   176   2      7.2337862313661239      3.4711117299913465      7.7137899320000001
   177   1      18.077603506585199      22.094655431666443      6.1366667990000003
   178   2      18.758504202591546      23.154939653315999      25.987737755000001
   179   2      18.758504202591546      23.154939653315999      29.141369796000003
   180   1      7.7017781288328475       4.003286509386192      16.850456731000001
   181   1       8.051840940110603      4.4519910337585129      27.564246663000002
   182   2      20.468644238350866      25.954502210963675            15.273947823
   183   2      20.468644238350866      25.954502210963675      18.427579864000002
   184   2      21.509191271256366      27.721343237497575      4.5601578910000002
   185   2      21.509191271256366      27.721343237497575      7.7137899320000001
   186   1      14.096961663041172      14.724487032326218      6.1366667990000003
   187   2      23.150793162807101      30.287224130878077      25.987737755000001
   188   2      23.150793162807101      30.287224130878077      29.141369796000003
   189   1      9.4863656979425404      6.6183969291990019      16.850456731000001
   190   1      12.444500055703113      11.584715795007225      27.564246663000002
   191   2      22.253231807460427      28.569612630776483            15.273947823
   192   2      22.253231807460427      28.569612630776483      18.427579864000002
   193   2      17.528549427712321      20.351174838157547      4.5601578910000002
   194   2      17.528549427712321      20.351174838157547      7.7137899320000001
   195   1      10.116319819497305      7.3543186329863319      6.1366667990000003
   196   2       9.287220316973233      5.7992187722121376      25.987737755000001
   197   2       9.287220316973233      5.7992187722121376      29.141369796000003
   198   1      11.270953267052102      9.2335073490117008      16.850456731000001
   199   1      16.836789015918804      18.717000272569297      27.564246663000002
   200   2      24.035860892592684      31.185854776697969            15.273947823
   201   2      24.035860892592684      31.185854776697969      18.427579864000002
   202   2      13.547907584168341       12.98100643881741      4.5601578910000002
   203   2      13.547907584168341       12.98100643881741      7.7137899320000001
   204   1      24.391724859387505      31.604550140492435      6.1366667990000003
   205   2      13.679879432565809      12.931943533460961      25.987737755000001
   206   2      13.679879432565809      12.931943533460961      29.141369796000003
   207   1      13.055540836161663      11.848617768824623      16.850456731000001
   208   1       21.22907797613475      25.849284750131147      27.564246663000002
   209   2      7.5644015782680789      2.1805652896642869            15.273947823
   210   2      7.5644015782680789      2.1805652896642869      18.427579864000002
   211   2      9.5672657406244053       5.610838039477243      4.5601578910000002
   212   2      9.5672657406244053       5.610838039477243      7.7137899320000001
   213   1      20.411083015843491      24.234381741152237      6.1366667990000003
   214   2        18.0721683927813      20.064228011022919      25.987737755000001
   215   2        18.0721683927813      20.064228011022919      29.141369796000003
   216   1      14.840128405271418      14.463728188637546      16.850456731000001
   217   1      7.3655051303006873       1.361279391465323      27.564246663000002
   218   2      9.3489891473776403      4.7956757094772096            15.273947823
   219   2      9.3489891473776403      4.7956757094772096      18.427579864000002
   220   2      23.842670780514645      29.861069546983568      4.5601578910000002
   221   2      23.842670780514645      29.861069546983568      7.7137899320000001
   222   1      16.430441172299464      16.864213341812128      6.1366667990000003
   223   2      22.464457352997186      27.196512488584879      25.987737755000001
   224   2      22.464457352997186      27.196512488584879      29.141369796000003
   225   1       16.62471597438098      17.078838608450358      16.850456731000001
   226   1      11.758164245893004      8.4940041527141457      27.564246663000002
   227   2      11.133576716487331      7.4107861292900212            15.273947823
   228   2      11.133576716487331      7.4107861292900212      18.427579864000002
   229   2       19.86202893697066      22.490901147643317      4.5601578910000002
   230   2       19.86202893697066      22.490901147643317      7.7137899320000001
   231   1      12.449799328755464      9.4940449424719624      6.1366667990000003
   232   2      8.6008845071632525      2.7085071299188352      25.987737755000001
   233   2      8.6008845071632525      2.7085071299188352      29.141369796000003
   234   1      18.409303543490669      19.693949028262942      16.850456731000001
   235   1      16.150453206108949      15.626288630275996      27.564246663000002
   236   2      12.918164285596957      10.025896549102942            15.273947823
   237   2      12.918164285596957      10.025896549102942      18.427579864000002
   238   2      15.881387093426653      15.120732748303135      4.5601578910000002
   239   2      15.881387093426653      15.120732748303135      7.7137899320000001
   240   1      8.4691574852115448       2.123876543131991      6.1366667990000003
   241   2      12.993543622755762      9.8412318911677712      25.987737755000001
   242   2      12.993543622755762      9.8412318911677712      29.141369796000003
   243   1      20.193891112600234      22.309059448075864      16.850456731000001
   244   1      20.542927243709254      22.758683178456444      27.564246663000002
   245   2      14.702751854706584       12.64100696891553            15.273947823
   246   2      14.702751854706584       12.64100696891553      18.427579864000002
   247   2      11.900745249882663      7.7505643489630964      4.5601578910000002
   248   2      11.900745249882663      7.7505643489630964      7.7137899320000001
   249   1      22.744562525101781      26.374108050638149      6.1366667990000003
   250   2      17.385832582971389      16.973516368729729      25.987737755000001
   251   2      17.385832582971389      16.973516368729729      29.141369796000003
   252   1      21.978478681709859      24.924169867888562      16.850456731000001
   253   1      24.935216203924814      29.890967656018514      27.564246663000002
   254   2      16.487339423816145      15.256117388728454            15.273947823
   255   2      16.487339423816145      15.256117388728454      18.427579864000002
   256   2      7.9201034063386322     0.38039594962298595      4.5601578910000002
   257   2      7.9201034063386322     0.38039594962298595      7.7137899320000001
   258   1      18.763920681557817       19.00393965129804      6.1366667990000003
   259   1      23.761107766842247      27.540412013809934      16.850456731000001
   260   2      21.778306620571882      24.105910916910066      25.987737755000001
   261   2      21.778306620571882      24.105910916910066      29.141369796000003
   262   1      11.071828436083152      5.4032925104208438      27.564246663000002
   263   2      18.271926992925774      17.871227808541263            15.273947823
   264   2      18.271926992925774      17.871227808541263      18.427579864000002
   265   2      22.195508446228917      24.630627457129172      4.5601578910000002
   266   2      22.195508446228917      24.630627457129172      7.7137899320000001
   267   1      14.783278838013754      11.633771251957873      6.1366667990000003
   268   2      26.170595580787573       31.23819539447214      25.987737755000001
   269   2      26.170595580787573       31.23819539447214      29.141369796000003
   270   1      25.545695335951812       30.15552243362297      16.850456731000001
   271   1      15.464302473683452       12.53568705860129      27.564246663000002
   272   2      20.056514562035527      20.486338228353961            15.273947823
   273   2      20.056514562035527      20.486338228353961      18.427579864000002
   274   2      18.214866602684928      17.260459057789021      4.5601578910000002
   275   2      18.214866602684928      17.260459057789021      7.7137899320000001
   276   1      10.802636994469815      4.2636028526178169      6.1366667990000003
   277   2      12.307207812945586      6.7505202488745804      25.987737755000001
   278   2      12.307207812945586      6.7505202488745804      29.141369796000003
   279   1      9.0742360216272022      1.1502329465892891      16.850456731000001
   280   1      19.856591433899013      19.667971536163364      27.564246663000002
   281   2      21.841102131145153      23.101448648166997            15.273947823
   282   2      21.841102131145153      23.101448648166997      18.427579864000002
   283   2      14.234224759140984      9.8902906584489507      4.5601578910000002
   284   2      14.234224759140984      9.8902906584489507      7.7137899320000001
   285   1      25.078042034360088      28.513834360124029      6.1366667990000003
   286   2       16.69968185054589      13.882914797055028      25.987737755000001
   287   2       16.69968185054589      13.882914797055028      29.141369796000003
   288   1      10.858823590736829      3.7653433664022122      16.850456731000001
   289   1      24.248880394114963      26.800256013725214      27.564246663000002
   290   2      23.625689700254654      25.716559067979581            15.273947823
   291   2      23.625689700254654      25.716559067979581      18.427579864000002
   292   2      10.253582915596986      2.5201222591088959      4.5601578910000002
   293   2      10.253582915596986      2.5201222591088959      7.7137899320000001
   294   1      21.097400190816085      21.143665960783977      6.1366667990000003
   295   2      21.091970810761772      21.015199274616986      25.987737755000001
   296   2      21.091970810761772      21.015199274616986      29.141369796000003
   297   1      12.643411159846455      6.3804537862149111      16.850456731000001
   298   1      10.385307548280963      2.3122506550592772      27.564246663000002
   299   2      25.408318785387106      28.332801213901067            15.273947823
   300   2      25.408318785387106      28.332801213901067      18.427579864000002
   301   2       24.52898795548721      26.770353766615081      4.5601578910000002
   302   2       24.52898795548721      26.770353766615081      7.7137899320000001
   303   1      17.116758347272043      13.773497561443669      6.1366667990000003
   304   2      25.484259770977456      28.147483752178836      25.987737755000001
   305   2      25.484259770977456      28.147483752178836      29.141369796000003
   306   1      14.427998728956084      8.9955642060278329      16.850456731000001
   307   1      14.777966663873277      9.4449754163081003      27.564246663000002
   308   2      27.192906354496674      30.947911633713879            15.273947823
   309   2      27.192906354496674      30.947911633713879      18.427579864000002
   310   2      20.548346111943175      19.400185367274858      4.5601578910000002
   311   2      20.548346111943175      19.400185367274858      7.7137899320000001
   312   1      13.136116503727996        6.40332916210353      6.1366667990000003
   313   2      11.620686925143461      3.6594783935129018      25.987737755000001
   314   2      11.620686925143461      3.6594783935129018      29.141369796000003
   315   1      16.212586298065645      11.610674625840756      16.850456731000001
   316   1      19.170255624089158       16.57725989387006      27.564246663000002
   317   2      10.721447040172061      1.9426221466803075            15.273947823
   318   2      10.721447040172061      1.9426221466803075      18.427579864000002
   319   2      16.567704268399179       12.03001696793469      4.5601578910000002
   320   2      16.567704268399179       12.03001696793469      7.7137899320000001
   321   1      27.411521543618321      30.653560669609789      6.1366667990000003
   322   2      16.013346040735907      10.792203154761726      25.987737755000001
   323   2      16.013346040735907      10.792203154761726      29.141369796000003
   324   1      17.997173867175338      14.225785045653343      16.850456731000001
   325   1      23.562544584304849      23.709544371432134      27.564246663000002
   326   2      12.506034609281622      4.5577325664932307            15.273947823
   327   2      12.506034609281622      4.5577325664932307      18.427579864000002
   328   2      12.587062424855278      4.6598485685947217      4.5601578910000002
   329   2      12.587062424855278      4.6598485685947217      7.7137899320000001
   330   1      23.430879700074396        23.2833922702698      6.1366667990000003
   331   2      20.405635000951662      17.924487632323686      25.987737755000001
   332   2      20.405635000951662      17.924487632323686      29.141369796000003
   333   1      19.781761436284896      16.840895465466264      16.850456731000001
   334   1      27.955018621905218       30.84193891961247      27.564246663000002
   335   2      14.290622178391313      7.1728429863059286            15.273947823
   336   2      14.290622178391313      7.1728429863059286      18.427579864000002
   337   2      26.862467464745478      28.910080076100851      4.5601578910000002
   338   2      26.862467464745478      28.910080076100851      7.7137899320000001
   339   1      19.450237856530396      15.913223870929635      6.1366667990000003
   340   2      24.797923961167417       25.05677210988587      25.987737755000001
   341   2      24.797923961167417       25.05677210988587      29.141369796000003
   342   1      21.566349005394589      19.456005885278852      16.850456731000001
   343   1      14.091630854063167      6.3542637740150232      27.564246663000002
   344   2      16.075209747500875      9.7879534061187385            15.273947823
   345   2      16.075209747500875      9.7879534061187385      18.427579864000002
   346   2      22.881825621201433      21.539911676760713      4.5601578910000002
   347   2      22.881825621201433      21.539911676760713      7.7137899320000001
   348   1      15.469596012986347      8.5430554715894687      6.1366667990000003
   349   2      10.934351115333545     0.56876675121971176      25.987737755000001
   350   2      10.934351115333545     0.56876675121971176      29.141369796000003
   351   1      23.350936574504082      22.071116305091884      16.850456731000001
   352   1      18.483919814279052      13.486548251576982      27.564246663000002
   353   2      17.859797316610567      12.403063825931548            15.273947823
   354   2      17.859797316610567      12.403063825931548      18.427579864000002
   355   2      18.901183777657433      14.169743277420546      4.5601578910000002
   356   2      18.901183777657433      14.169743277420546      7.7137899320000001
   357   1      11.488954169442327      1.1728870722492311      6.1366667990000003