(written by ASE)

819 atoms
2 atom types

0.0      30.201710617181842  xlo xhi
0.0       26.15545258759046  ylo yhi
0.0      74.581211905000004  zlo zhi
     15.100854581329664                       0                       0  xy xz yz

Masses

     1      95.949999975317411 # Mo
     2      32.059999991752747 # S

Atoms # atomic

     1   2      2.5239630440480934      4.3638688382176154            15.273947823
     2   2      2.5239630440480934      4.3638688382176154      18.427579864000002
     3   1      10.993640047488643      18.785873921416215      27.564246663000002
     4   2      11.972820395072297      20.363888246897716      4.5601578910000002
     5   2      11.972820395072297      20.363888246897716      7.7137899320000001
     6   1      4.5151126948959464      7.4298207322751617      16.850456731000001
     7   2      1.5341248876350928      2.2102462897739699      25.987737755000001
     8   2      1.5341248876350928      2.2102462897739699      29.141369796000003
     9   1      6.4966863311920946       10.68732875698802      6.1366667990000003
    10   2      5.5106874467984799      8.9627968238730471            15.273947823
    11   2      5.5106874467984799      8.9627968238730471      18.427579864000002
    12   1      12.815710345352199      21.336771285815509      27.564246663000002
    13   2      10.645272755554554      17.489662687821856      4.5601578910000002
    14   2      10.645272755554554      17.489662687821856      7.7137899320000001
    15   1      7.5018362264001892      12.027057753450709      16.850456731000001
    16   2      3.3596186222219382      4.7969673054239985      25.987737755000001
    17   2      3.3596186222219382      4.7969673054239985      29.141369796000003
    18   1      5.1691386916743562      7.8131031979121568      6.1366667990000003
    19   2      8.4974109783026179      13.560033845048595            15.273947823
    20   2      8.4974109783026179      13.560033845048595      18.427579864000002
    21   1      14.643461107550337      23.958642560918651      27.564246663000002
    22   2      9.3177251160367067      14.615437128745898      4.5601578910000002
    23   2      9.3177251160367067      14.615437128745898      7.7137899320000001
    24   1      10.488560629150363       16.62598573910633      16.850456731000001
    25   2      5.1851123568087774      7.3836883210738877      25.987737755000001
    26   2      5.1851123568087774      7.3836883210738877      29.141369796000003
    27   1      3.8415910521566143       4.938877638836292      6.1366667990000003
    28   2      11.484135381053004       18.15896183070403            15.273947823
    29   2      11.484135381053004       18.15896183070403      18.427579864000002
    30   1      1.3681002608074087     0.38991098897827148      27.564246663000002
    31   2      7.9901774765189675      11.741211569670032      4.5601578910000002
    32   2      7.9901774765189675      11.741211569670032      7.7137899320000001
    33   1      13.475285031900968      21.224913724761578      16.850456731000001
    34   2      7.0106030597710403      9.9717614757582762      25.987737755000001
    35   2      7.0106030597710403      9.9717614757582762      29.141369796000003
    36   1      2.5140434126388738      2.0646520797604282      6.1366667990000003
    37   2      14.470859783803395      22.757889816359462            15.273947823
    38   2      14.470859783803395      22.757889816359462      18.427579864000002
    39   1      3.1935939953942984      2.9766320046282537      27.564246663000002
    40   2      6.6626298370012798       8.866986010594168      4.5601578910000002
    41   2      6.6626298370012798       8.866986010594168      7.7137899320000001
    42   1      16.463476814611216      25.824688029351993      16.850456731000001
    43   2      8.8360967943579727      12.558482491408212      25.987737755000001
    44   2      8.8360967943579727      12.558482491408212      29.141369796000003
    45   1      16.287350354450798      25.345879108275021      6.1366667990000003
    46   2       2.358196985184088      1.2022115333594221            15.273947823
    47   2       2.358196985184088      1.2022115333594221      18.427579864000002
    48   1      5.0190877299811643        5.56335302027819      27.564246663000002
    49   2      5.3350821974835414      5.9927604515183051      4.5601578910000002
    50   2      5.3350821974835414      5.9927604515183051      7.7137899320000001
    51   1      4.3493466360318349      4.2681634274171545      16.850456731000001
    52   2      10.661596592193757      15.142499228989475      25.987737755000001
    53   2      10.661596592193757      15.142499228989475      29.141369796000003
    54   1      14.959802714933058       22.47165354919925      6.1366667990000003
    55   2       5.344921387934475      5.8011395190148551            15.273947823
    56   2       5.344921387934475      5.8011395190148551      18.427579864000002
    57   1      6.8445784329435089      8.1514261749624843      27.564246663000002
    58   2      4.0075345579657471      3.1185348924424408      4.5601578910000002
    59   2      4.0075345579657471      3.1185348924424408      7.7137899320000001
    60   1      7.3360710387822232       8.867091413072588      16.850456731000001
    61   2      12.487084263531656       17.73192452270813      25.987737755000001
    62   2      12.487084263531656       17.73192452270813      29.141369796000003
    63   1      13.632255075415316      19.597427990123293      6.1366667990000003
    64   2      8.3316457906847035       10.40006750467038            15.273947823
    65   2      8.3316457906847035       10.40006750467038      18.427579864000002
    66   1      8.6700721675303551      10.738147190612514      27.564246663000002
    67   2      2.6799869184480061     0.24430933336648353      4.5601578910000002
    68   2      2.6799869184480061     0.24430933336648353      7.7137899320000001
    69   1      10.322794570286252      13.464328434248136      16.850456731000001
    70   2      14.312577998118389      20.318645538358204      25.987737755000001
    71   2      14.312577998118389      20.318645538358204      29.141369796000003
    72   1      12.304707435897521      16.723202431047334      6.1366667990000003
    73   2      11.318369322188946       14.99730452584593            15.273947823
    74   2      11.318369322188946       14.99730452584593      18.427579864000002
    75   1      10.495565902117155      13.324868206262449      27.564246663000002
    76   2      16.453293860259983      23.525536361881169      4.5601578910000002
    77   2      16.453293860259983      23.525536361881169      7.7137899320000001
    78   1      13.309518973036637      18.063256419903567      16.850456731000001
    79   2      16.138071732705296      22.905366554008094      25.987737755000001
    80   2      16.138071732705296      22.905366554008094      29.141369796000003
    81   1      10.977159796379784      13.848976871971471      6.1366667990000003
    82   2       14.30509372493912      19.596232511501359            15.273947823
    83   2       14.30509372493912      19.596232511501359      18.427579864000002
    84   1      12.321059636704041      15.911589221912431      27.564246663000002
    85   2      15.125746220742203      20.651310802805213      4.5601578910000002
    86   2      15.125746220742203      20.651310802805213      7.7137899320000001
    87   1      16.296243375787029      22.662184405559003      16.850456731000001
    88   2      17.960120809197292      25.465728891647725      25.987737755000001
    89   2      17.960120809197292      25.465728891647725      29.141369796000003
    90   1      9.6496121568620961        10.9747513128957      6.1366667990000003
    91   2      17.291818127689666      24.195160497156888            15.273947823
    92   2      17.291818127689666      24.195160497156888      18.427579864000002
    93   1      14.146553371290754       18.49831023756246      27.564246663000002
    94   2      13.798198581224447      17.777085243729438      4.5601578910000002
    95   2      13.798198581224447      17.777085243729438      7.7137899320000001
    96   1      4.1835805771677759      1.1065061225588686      16.850456731000001
    97   2      4.6870382114372413      1.9226826059201696      25.987737755000001
    98   2      4.6870382114372413      1.9226826059201696      29.141369796000003
    99   1       8.322064517344355      8.1005257538198361      6.1366667990000003
   100   2      5.1791553290703103      2.6394822141567555            15.273947823
   101   2      5.1791553290703103      2.6394822141567555      18.427579864000002
   102   1      15.972047105877683      21.085031253212392      27.564246663000002
   103   2      12.470650941706708      14.902859684653484      4.5601578910000002
   104   2      12.470650941706708      14.902859684653484      7.7137899320000001
   105   1      7.1703049799181091      5.7054341082143942      16.850456731000001
   106   2      6.5125319460241302      4.5094036215701516      25.987737755000001
   107   2      6.5125319460241302      4.5094036215701516      29.141369796000003
   108   1      6.9945168778265607      5.2263001947438781      6.1366667990000003
   109   2      8.1658797318205369      7.2384101998122814            15.273947823
   110   2      8.1658797318205369      7.2384101998122814      18.427579864000002
   111   1      17.796374431352401      23.671078877064943      27.564246663000002
   112   2      11.143103302188971       12.02863412557762      4.5601578910000002
   113   2      11.143103302188971       12.02863412557762      7.7137899320000001
   114   1      10.157028511422194      10.302671129390035      16.850456731000001
   115   2        8.33802264898641      7.0974767762544477      25.987737755000001
   116   2        8.33802264898641      7.0974767762544477      29.141369796000003
   117   1      5.6669692383087948      2.3520746356680147      6.1366667990000003
   118   2      11.152603263324833      11.835647220987735            15.273947823
   119   2      11.152603263324833      11.835647220987735      18.427579864000002
   120   1      4.5210135846096726     0.10234730512442458      27.564246663000002
   121   2       9.815555662671283      9.1544085665018482      4.5601578910000002
   122   2       9.815555662671283      9.1544085665018482      7.7137899320000001
   123   1      13.143752914172419      14.901599115045375      16.850456731000001
   124   2      10.163516383573302      9.6841977919044293      25.987737755000001
   125   2      10.163516383573302      9.6841977919044293      29.141369796000003
   126   1      19.440276180120744      25.633301664182515      6.1366667990000003
   127   2       14.13932766607506      16.434575206643263            15.273947823
   128   2       14.13932766607506      16.434575206643263      18.427579864000002
   129   1       6.346507319196447      2.6890683207744535      27.564246663000002
   130   2      8.4880080231534887       6.280183007425892      4.5601578910000002
   131   2      8.4880080231534887       6.280183007425892      7.7137899320000001
   132   1      16.130477316922967        19.5005271007009      16.850456731000001
   133   2      11.989010118160161      12.270918807554365      25.987737755000001
   134   2      11.989010118160161      12.270918807554365      29.141369796000003
   135   1      18.112728540602951      22.759076105106651      6.1366667990000003
   136   2      17.126052068825555      21.033503192298696            15.273947823
   137   2      17.126052068825555      21.033503192298696      18.427579864000002
   138   1      8.1719980221588404       5.277141475458702      27.564246663000002
   139   2      7.1604603836356944      3.4059574483499344      4.5601578910000002
   140   2      7.1604603836356944      3.4059574483499344      7.7137899320000001
   141   1      19.118669099633166      24.100301405291226      16.850456731000001
   142   2      13.814503852746942      14.857639823204394      25.987737755000001
   143   2      13.814503852746942      14.857639823204394      29.141369796000003
   144   1      16.785180901085315      19.884850546030972      6.1366667990000003
   145   2      20.114243851535594      25.633277496889111            15.273947823
   146   2      20.114243851535594      25.633277496889111      18.427579864000002
   147   1      9.9974917567456458      7.8638624911087778      27.564246663000002
   148   2      5.8329127441180075     0.53173188927416293      4.5601578910000002
   149   2      5.8329127441180075     0.53173188927416293      7.7137899320000001
   150   1      7.0045389210538369      2.5437768033562951      16.850456731000001
   151   2      15.639997587333761      17.444360838854376      25.987737755000001
   152   2      15.639997587333761      17.444360838854376      29.141369796000003
   153   1      15.457633261567526      17.010624986955015      6.1366667990000003
   154   2      8.0001136729564788      4.0767528949541818            15.273947823
   155   2      8.0001136729564788      4.0767528949541818      18.427579864000002
   156   1      11.822985491332552      10.450583506758667      27.564246663000002
   157   2      19.606219685929929      23.812958917788752      4.5601578910000002
   158   2      19.606219685929929      23.812958917788752      7.7137899320000001
   159   1      9.9912633238043327      7.1427047890117281      16.850456731000001
   160   2      17.465491321920652      20.031081854504357      25.987737755000001
   161   2      17.465491321920652      20.031081854504357      29.141369796000003
   162   1      14.130085622049728      14.136399427879056      6.1366667990000003
   163   2      10.986838075706759      8.6756808806096135            15.273947823
   164   2      10.986838075706759      8.6756808806096135      18.427579864000002
   165   1      13.648479225919257      13.037304522408695      27.564246663000002
   166   2      18.278672046412165      20.938733358712891      4.5601578910000002
   167   2      18.278672046412165      20.938733358712891      7.7137899320000001
   168   1      12.977986855308362      11.739941810187277      16.850456731000001
   169   2      19.290985056507402      22.617802870154339      25.987737755000001
   170   2      19.290985056507402      22.617802870154339      29.141369796000003
   171   1      12.802537982531991      11.262173868803194      6.1366667990000003
   172   2      13.973561607210948      13.272917901785069            15.273947823
   173   2      13.973561607210948      13.272917901785069      18.427579864000002
   174   1       15.47397296050619      15.624025538058632      27.564246663000002
   175   2      16.951124406894397      18.064507799637028      4.5601578910000002
   176   2      16.951124406894397      18.064507799637028      7.7137899320000001
   177   1      15.964711258058855      16.338869795842708      16.850456731000001
   178   2      21.115312381982303      25.203850494006844      25.987737755000001
   179   2      21.115312381982303      25.203850494006844      29.141369796000003
   180   1      11.474990343014248       8.387948309727328      6.1366667990000003
   181   2      16.960286009961443      17.871845887440504            15.273947823
   182   2      16.960286009961443      17.871845887440504      18.427579864000002
   183   1      17.299466695093013      18.210746553708614      27.564246663000002
   184   2      15.623576767376658      15.190282240561164      4.5601578910000002
   185   2      15.623576767376658      15.190282240561164      7.7137899320000001
   186   1      18.951435660809349      20.937797781498141      16.850456731000001
   187   2      7.8399515352394316      1.6351189220663229      25.987737755000001
   188   2      7.8399515352394316      1.6351189220663229      29.141369796000003
   189   1      10.147442703496562      5.5137227506515583      6.1366667990000003
   190   2      19.947010412711727      22.470773873095936            15.273947823
   191   2      19.947010412711727      22.470773873095936      18.427579864000002
   192   1      19.124960429679877      20.797467569358549      27.564246663000002
   193   2      14.296029127858969      12.316056681485298      4.5601578910000002
   194   2      14.296029127858969      12.316056681485298      7.7137899320000001
   195   1      21.939627443519605      25.537572086088559      16.850456731000001
   196   2      9.6654422382017398      4.2231920767506654      25.987737755000001
   197   2      9.6654422382017398      4.2231920767506654      29.141369796000003
   198   1      8.8198950639787164      2.6394971915755083      6.1366667990000003
   199   2      7.8343476140923656      0.9150955900959884            15.273947823
   200   2      7.8343476140923656      0.9150955900959884      18.427579864000002
   201   1      20.949287755154661      23.383515193211096      27.564246663000002
   202   2      12.968481488341151       9.441831122409436      4.5601578910000002
   203   2      12.968481488341151       9.441831122409436      7.7137899320000001
   204   1      9.8254972649401644      3.9810474841536272      16.850456731000001
   205   2      11.490935972788627      6.8099130924006479      25.987737755000001
   206   2      11.490935972788627      6.8099130924006479      29.141369796000003
   207   1      22.593202005790694      25.920724220090193      6.1366667990000003
   208   2       10.82107201684286      5.5140235757514224            15.273947823
   209   2       10.82107201684286      5.5140235757514224      18.427579864000002
   210   1      22.774781489741482      25.970236208861081      27.564246663000002
   211   2      11.640933848823488      6.5676055633335704      4.5601578910000002
   212   2      11.640933848823488      6.5676055633335704      7.7137899320000001
   213   1      12.812220796444249      8.5782845053290817      16.850456731000001
   214   2       13.31642970737545      9.3966341080506286      25.987737755000001
   215   2       13.31642970737545      9.3966341080506286      29.141369796000003
   216   1      21.265654366272951      23.046498661014329      6.1366667990000003
   217   2      13.807795548346837      10.111260596927062            15.273947823
   218   2      13.807795548346837      10.111260596927062      18.427579864000002
   219   1      9.4994176113741702      2.4028567759549202      27.564246663000002
   220   2      10.313386209305696      3.6933800042575209      4.5601578910000002
   221   2      10.313386209305696      3.6933800042575209      7.7137899320000001
   222   1      15.798945199194797       13.17721249098461      16.850456731000001
   223   2      15.141923441962311      11.983355123700566      25.987737755000001
   224   2      15.141923441962311      11.983355123700566      29.141369796000003
   225   1      19.938106726755215      20.172273101938373      6.1366667990000003
   226   2      16.794519951097385      14.710188582582401            15.273947823
   227   2      16.794519951097385      14.710188582582401      18.427579864000002
   228   1      11.324911345961015      4.9895777916049475      27.564246663000002
   229   2      8.9858385697879548     0.81915444518174918      4.5601578910000002
   230   2      8.9858385697879548     0.81915444518174918      7.7137899320000001
   231   1      18.785669601945024      17.776140476640137      16.850456731000001
   232   2      16.967417176549088      14.570076139350594      25.987737755000001
   233   2      16.967417176549088      14.570076139350594      29.141369796000003
   234   1      18.610559087237473      17.298047542862694      6.1366667990000003
   235   2      19.781244353847558      19.309116568237837            15.273947823
   236   2      19.781244353847558      19.309116568237837      18.427579864000002
   237   1      13.150417207045855      7.5708902511175378      27.564246663000002
   238   2      22.759145511599879      24.100381473696345      4.5601578910000002
   239   2      22.759145511599879      24.100381473696345      7.7137899320000001
   240   1      21.773861384655326      22.375914781230456      16.850456731000001
   241   2      18.792910911135984      17.156797155000575      25.987737755000001
   242   2      18.792910911135984      17.156797155000575      29.141369796000003
   243   1      17.283011447719677      14.423821983786645      6.1366667990000003
   244   2      22.769436136557918      23.908890872828252            15.273947823
   245   2      22.769436136557918      23.908890872828252      18.427579864000002
   246   1        14.9758988151347      10.163019822904864      27.564246663000002
   247   2       21.43159787208214      21.226155914620477      4.5601578910000002
   248   2       21.43159787208214      21.226155914620477      7.7137899320000001
   249   1       9.659731206076108     0.81939017929552882      16.850456731000001
   250   2      20.618404645722801      19.743518170650557      25.987737755000001
   251   2      20.618404645722801      19.743518170650557      29.141369796000003
   252   1      15.955463808201939       11.54959642471078      6.1366667990000003
   253   2      10.655305957978534      2.3523662708934134            15.273947823
   254   2      10.655305957978534      2.3523662708934134      18.427579864000002
   255   1      16.801392549721452      12.749740838554848      27.564246663000002
   256   2      20.104050232564397      18.351930355544614      4.5601578910000002
   257   2      20.104050232564397      18.351930355544614      7.7137899320000001
   258   1      12.646455608826443      5.4183181649508692      16.850456731000001
   259   2      22.443898380309594      22.330239186300492      25.987737755000001
   260   2      22.443898380309594      22.330239186300492      29.141369796000003
   261   1      14.627916168684196      8.6753708656349158      6.1366667990000003
   262   2      13.642030360729029      6.9512942565486613            15.273947823
   263   2      13.642030360729029      6.9512942565486613      18.427579864000002
   264   1      18.626886284308387      15.336461854204785      27.564246663000002
   265   2      18.776502593046654      15.477704796468748      4.5601578910000002
   266   2      18.776502593046654      15.477704796468748      7.7137899320000001
   267   1      15.633179140330682      10.015555186126415      16.850456731000001
   268   2      24.268225705784495      24.916286810152997      25.987737755000001
   269   2      24.268225705784495      24.916286810152997      29.141369796000003
   270   1      13.300368529166455      5.8011453065590501      6.1366667990000003
   271   2      16.628753892233163      11.548531277724209            15.273947823
   272   2      16.628753892233163      11.548531277724209      18.427579864000002
   273   1       20.44894142404943      17.894119913775786      27.564246663000002
   274   2      17.448954953528865      12.603479237392699      4.5601578910000002
   275   2      17.448954953528865      12.603479237392699      7.7137899320000001
   276   1      18.619903543080966      14.614483171781851      16.850456731000001
   277   2       10.99286182741711      1.3489073772468363      25.987737755000001
   278   2       10.99286182741711      1.3489073772468363      29.141369796000003
   279   1      11.972820889648716      2.9269197474831881      6.1366667990000003
   280   2      19.615478294983497      16.147459263379734            15.273947823
   281   2      19.615478294983497      16.147459263379734      18.427579864000002
   282   1      22.277873753482023      20.509903885504748      27.564246663000002
   283   2      16.121407314011179       9.729253678317022      4.5601578910000002
   284   2      16.121407314011179       9.729253678317022      7.7137899320000001
   285   1      21.606627945831402      19.213411157437374      16.850456731000001
   286   2      12.818355562003889      3.9356283928968647      25.987737755000001
   287   2      12.818355562003889      3.9356283928968647      29.141369796000003
   288   1      10.645273250131028    0.052694188407416076      6.1366667990000003
   289   2      22.602202697733997       20.74638724903517            15.273947823
   290   2      22.602202697733997       20.74638724903517      18.427579864000002
   291   1      24.102201078956814      23.095951509357299      27.564246663000002
   292   2      14.793859674493385      6.8550281192409726      4.5601578910000002
   293   2      14.793859674493385      6.8550281192409726      7.7137899320000001
   294   1      24.594819728541555      23.813185462027793      16.850456731000001
   295   2      14.643849296590775      6.5223494085468472      25.987737755000001
   296   2      14.643849296590775      6.5223494085468472      29.141369796000003
   297   1      24.418580191942901      23.333921216921915      6.1366667990000003
   298   2       25.59039448044398      25.346161553625677            15.273947823
   299   2       25.59039448044398      25.346161553625677      18.427579864000002
   300   1      25.927691781919155      25.684024664041594      27.564246663000002
   301   2      13.466312034975669      3.9808025601651531      4.5601578910000002
   302   2      13.466312034975669      3.9808025601651531      7.7137899320000001
   303   1      12.480689549962275      2.2566608600927687      16.850456731000001
   304   2      16.469343031177601      9.1090704241968297      25.987737755000001
   305   2      16.469343031177601      9.1090704241968297      29.141369796000003
   306   1      23.091032552425158      20.459695657845959      6.1366667990000003
   307   2      13.476264301864809      3.7896369516906541            15.273947823
   308   2      13.476264301864809      3.7896369516906541      18.427579864000002
   309   1      12.652330935176387      2.1152930921011199      27.564246663000002
   310   2      12.138764395457848      1.1065770010892424      4.5601578910000002
   311   2      12.138764395457848      1.1065770010892424      7.7137899320000001
   312   1      15.465945701506547      6.8530515623333335      16.850456731000001
   313   2      18.294836765764419      11.695791439846811      25.987737755000001
   314   2      18.294836765764419      11.695791439846811      29.141369796000003
   315   1      21.763484912907366      17.585470098770095      6.1366667990000003
   316   2      16.461520453409189      8.3860276539312189            15.273947823
   317   2      16.461520453409189      8.3860276539312189      18.427579864000002
   318   1      14.477824669763205      4.7020141077511015      27.564246663000002
   319   2      25.912071337269829      24.387804029603931      4.5601578910000002
   320   2      25.912071337269829      24.387804029603931      7.7137899320000001
   321   1      18.454137484216744      11.452825866923842      16.850456731000001
   322   2      20.120330500351354      14.282512455496748      25.987737755000001
   323   2      20.120330500351354      14.282512455496748      29.141369796000003
   324   1       20.43593727338968      14.711244539694231      6.1366667990000003
   325   2      19.449712236119332      12.985801958521636            15.273947823
   326   2      19.449712236119332      12.985801958521636      18.427579864000002
   327   1      16.303318404349955      7.2887351234010831      27.564246663000002
   328   2      24.584523697752033      21.513578470527971      4.5601578910000002
   329   2      24.584523697752033      21.513578470527971      7.7137899320000001
   330   1      21.440861886967294      16.051753852579182      16.850456731000001
   331   2      21.945824234938168      16.869233471146728      25.987737755000001
   332   2      21.945824234938168      16.869233471146728      29.141369796000003
   333   1      19.108389633871884      11.837018980618366      6.1366667990000003
   334   2      22.436436638869719      17.584729944177067            15.273947823
   335   2      22.436436638869719      17.584729944177067      18.427579864000002
   336   1       18.12881213893689      9.8754561390510194      27.564246663000002
   337   2      23.256976058234347        18.6393529114522      4.5601578910000002
   338   2      23.256976058234347        18.6393529114522      7.7137899320000001
   339   1      24.429053669677277       20.65152815716969      16.850456731000001
   340   2      23.771317969524986       19.45595448679671      25.987737755000001
   341   2      23.771317969524986       19.45595448679671      29.141369796000003
   342   1      17.780841994354198       8.962793421542596      6.1366667990000003
   343   2      25.424628421579918      22.184504248767574            15.273947823
   344   2      25.424628421579918      22.184504248767574      18.427579864000002
   345   1      19.954305873523669      12.462177154701049      27.564246663000002
   346   2      21.929428418716661      15.765127352376336      4.5601578910000002
   347   2      21.929428418716661      15.765127352376336      7.7137899320000001
   348   1       27.41577807242788      25.250456142825126      16.850456731000001
   349   2      25.594515265381801      22.025103050439792      25.987737755000001
   350   2      25.594515265381801      22.025103050439792      29.141369796000003
   351   1      16.453294354836459      6.0885678624667294      6.1366667990000003
   352   2      13.310498243000804     0.62797964683246177            15.273947823
   353   2      13.310498243000804     0.62797964683246177      18.427579864000002
   354   1      21.779799608110576      15.048898170350938      27.564246663000002
   355   2      20.601880779198865      12.890901793300472      4.5601578910000002
   356   2      20.601880779198865      12.890901793300472      7.7137899320000001
   357   1      15.300179642642435      3.6913942574751397      16.850456731000001