(written by ASE)

43784 atoms
3 atom types

0.0      81.875733650571163  xlo xhi
0.0      81.875733650571163  ylo yhi
0.0      135.32855798599999  zlo zhi

Masses

     1       137.3269999646734 # Ba
     2      15.998999995884349 # O
     3      47.866999987686484 # Ti

Atoms # atomic

     1   1       79.00716883684025      80.562996759753304      3.0874199999999998
     2   1       79.00716883684025      80.562996759753304      7.1900700000000004
     3   1       79.00716883684025      80.562996759753304      11.292730000000001
     4   1       79.00716883684025      80.562996759753304      15.395379999999999
     5   1       79.00716883684025      80.562996759753304                19.49804
     6   1       79.00716883684025      80.562996759753304                 23.6007
     7   1       79.00716883684025      80.562996759753304                27.70335
     8   1       79.00716883684025      80.562996759753304      31.806010000000001
     9   1       79.00716883684025      80.562996759753304      35.908659999999998
    10   1       79.00716883684025      80.562996759753304      40.011319999999998
    11   1       79.00716883684025      80.562996759753304      44.113970000000002
    12   1       81.72987793671183      77.645808438462325      3.0874199999999998
    13   1       81.72987793671183      77.645808438462325      7.1900700000000004
    14   1       81.72987793671183      77.645808438462325      11.292730000000001
    15   1       81.72987793671183      77.645808438462325      15.395379999999999
    16   1       81.72987793671183      77.645808438462325                19.49804
    17   1       81.72987793671183      77.645808438462325                 23.6007
    18   1       81.72987793671183      77.645808438462325                27.70335
    19   1       81.72987793671183      77.645808438462325      31.806010000000001
    20   1       81.72987793671183      77.645808438462325      35.908659999999998
    21   1       81.72987793671183      77.645808438462325      40.011319999999998
    22   1       81.72987793671183      77.645808438462325      44.113970000000002
    23   3      81.827117547421523      80.465757149043597      5.2105499999999996
    24   3      81.827117547421523      80.465757149043597      9.3132000000000001
    25   3      81.827117547421523      80.465757149043597                13.41586
    26   3      81.827117547421523      80.465757149043597      17.518509999999999
    27   3      81.827117547421523      80.465757149043597      21.621169999999999
    28   3      81.827117547421523      80.465757149043597                25.72382
    29   3      81.827117547421523      80.465757149043597                29.82648
    30   3      81.827117547421523      80.465757149043597      33.929139999999997
    31   3      81.827117547421523      80.465757149043597      38.031790000000001
    32   3      81.827117547421523      80.465757149043597      42.134450000000001
    33   2      81.827117547421523      80.465757149043597      2.9496899999999999
    34   2      80.368523386776033      79.104402599107814                 5.06358
    35   2      81.827117547421523      80.465757149043597      7.0523499999999997
    36   2      80.368523386776033      79.104402599107814      9.1662400000000002
    37   2      81.827117547421523      80.465757149043597      11.154999999999999
    38   2      80.368523386776033      79.104402599107814      13.268890000000001
    39   2      81.827117547421523      80.465757149043597                15.25766
    40   2      80.368523386776033      79.104402599107814      17.371549999999999
    41   2      81.827117547421523      80.465757149043597      19.360320000000002
    42   2      80.368523386776033      79.104402599107814                 21.4742
    43   2      81.827117547421523      80.465757149043597      23.462969999999999
    44   2      80.368523386776033      79.104402599107814                25.57686
    45   2      81.827117547421523      80.465757149043597      27.565629999999999
    46   2      80.368523386776033      79.104402599107814      29.679510000000001
    47   2      81.827117547421523      80.465757149043597      31.668279999999999
    48   2      80.368523386776033      79.104402599107814      33.782170000000001
    49   2      81.827117547421523      80.465757149043597      35.770940000000003
    50   2      80.368523386776033      79.104402599107814      37.884819999999998
    51   2      81.827117547421523      80.465757149043597                39.87359
    52   2      80.368523386776033      79.104402599107814      41.987479999999998
    53   2      81.827117547421523      80.465757149043597                43.97625
    54   1      73.367271415677678      80.757475981172703      3.0874199999999998
    55   1      73.367271415677678      80.757475981172703      7.1900700000000004
    56   1      73.367271415677678      80.757475981172703      11.292730000000001
    57   1      73.367271415677678      80.757475981172703      15.395379999999999
    58   1      73.367271415677678      80.757475981172703                19.49804
    59   1      73.367271415677678      80.757475981172703                 23.6007
    60   1      73.367271415677678      80.757475981172703                27.70335
    61   1      73.367271415677678      80.757475981172703      31.806010000000001
    62   1      73.367271415677678      80.757475981172703      35.908659999999998
    63   1      73.367271415677678      80.757475981172703      40.011319999999998
    64   1      73.367271415677678      80.757475981172703      44.113970000000002
    65   1      76.089980515549271      77.840287659881724      3.0874199999999998
    66   1      76.089980515549271      77.840287659881724      7.1900700000000004
    67   1      76.089980515549271      77.840287659881724      11.292730000000001
    68   1      76.089980515549271      77.840287659881724      15.395379999999999
    69   1      76.089980515549271      77.840287659881724                19.49804
    70   1      76.089980515549271      77.840287659881724                 23.6007
    71   1      76.089980515549271      77.840287659881724                27.70335
    72   1      76.089980515549271      77.840287659881724      31.806010000000001
    73   1      76.089980515549271      77.840287659881724      35.908659999999998
    74   1      76.089980515549271      77.840287659881724      40.011319999999998
    75   1      76.089980515549271      77.840287659881724      44.113970000000002
    76   3      76.187220126258964      80.660236370462997      5.2105499999999996
    77   3      76.187220126258964      80.660236370462997      9.3132000000000001
    78   3      76.187220126258964      80.660236370462997                13.41586
    79   3      76.187220126258964      80.660236370462997      17.518509999999999
    80   3      76.187220126258964      80.660236370462997      21.621169999999999
    81   3      76.187220126258964      80.660236370462997                25.72382
    82   3      76.187220126258964      80.660236370462997                29.82648
    83   3      76.187220126258964      80.660236370462997      33.929139999999997
    84   3      76.187220126258964      80.660236370462997      38.031790000000001
    85   3      76.187220126258964      80.660236370462997      42.134450000000001
    86   2      76.187220126258964      80.660236370462997      2.9496899999999999
    87   2      77.548574676194761      79.201642209817507                 5.06358
    88   2      74.728625965613475      79.298881820527214                 5.06358
    89   2      76.187220126258964      80.660236370462997      7.0523499999999997
    90   2      77.548574676194761      79.201642209817507      9.1662400000000002
    91   2      74.728625965613475      79.298881820527214      9.1662400000000002
    92   2      76.187220126258964      80.660236370462997      11.154999999999999
    93   2      77.548574676194761      79.201642209817507      13.268890000000001
    94   2      74.728625965613475      79.298881820527214      13.268890000000001
    95   2      76.187220126258964      80.660236370462997                15.25766
    96   2      77.548574676194761      79.201642209817507      17.371549999999999
    97   2      74.728625965613475      79.298881820527214      17.371549999999999
    98   2      76.187220126258964      80.660236370462997      19.360320000000002
    99   2      77.548574676194761      79.201642209817507                 21.4742
   100   2      74.728625965613475      79.298881820527214                 21.4742
   101   2      76.187220126258964      80.660236370462997      23.462969999999999
   102   2      77.548574676194761      79.201642209817507                25.57686
   103   2      74.728625965613475      79.298881820527214                25.57686
   104   2      76.187220126258964      80.660236370462997      27.565629999999999
   105   2      77.548574676194761      79.201642209817507      29.679510000000001
   106   2      74.728625965613475      79.298881820527214      29.679510000000001
   107   2      76.187220126258964      80.660236370462997      31.668279999999999
   108   2      77.548574676194761      79.201642209817507      33.782170000000001
   109   2      74.728625965613475      79.298881820527214      33.782170000000001
   110   2      76.187220126258964      80.660236370462997      35.770940000000003
   111   2      77.548574676194761      79.201642209817507      37.884819999999998
   112   2      74.728625965613475      79.298881820527214      37.884819999999998
   113   2      76.187220126258964      80.660236370462997                39.87359
   114   2      77.548574676194761      79.201642209817507      41.987479999999998
   115   2      74.728625965613475      79.298881820527214      41.987479999999998
   116   2      76.187220126258964      80.660236370462997                43.97625
   117   1      78.812689615420851      74.923099338590745      3.0874199999999998
   118   1      78.812689615420851      74.923099338590745      7.1900700000000004
   119   1      78.812689615420851      74.923099338590745      11.292730000000001
   120   1      78.812689615420851      74.923099338590745      15.395379999999999
   121   1      78.812689615420851      74.923099338590745                19.49804
   122   1      78.812689615420851      74.923099338590745                 23.6007
   123   1      78.812689615420851      74.923099338590745                27.70335
   124   1      78.812689615420851      74.923099338590745      31.806010000000001
   125   1      78.812689615420851      74.923099338590745      35.908659999999998
   126   1      78.812689615420851      74.923099338590745      40.011319999999998
   127   1      78.812689615420851      74.923099338590745      44.113970000000002
   128   3      78.909929226130544      77.743048049172017      5.2105499999999996
   129   3      78.909929226130544      77.743048049172017      9.3132000000000001
   130   3      78.909929226130544      77.743048049172017                13.41586
   131   3      78.909929226130544      77.743048049172017      17.518509999999999
   132   3      78.909929226130544      77.743048049172017      21.621169999999999
   133   3      78.909929226130544      77.743048049172017                25.72382
   134   3      78.909929226130544      77.743048049172017                29.82648
   135   3      78.909929226130544      77.743048049172017      33.929139999999997
   136   3      78.909929226130544      77.743048049172017      38.031790000000001
   137   3      78.909929226130544      77.743048049172017      42.134450000000001
   138   2      78.909929226130544      77.743048049172017      2.9496899999999999
   139   2       80.27128377606634      76.284453888526528                 5.06358
   140   2      77.451335065485054      76.381693499236235                 5.06358
   141   2      78.909929226130544      77.743048049172017      7.0523499999999997
   142   2       80.27128377606634      76.284453888526528      9.1662400000000002
   143   2      77.451335065485054      76.381693499236235      9.1662400000000002
   144   2      78.909929226130544      77.743048049172017      11.154999999999999
   145   2       80.27128377606634      76.284453888526528      13.268890000000001
   146   2      77.451335065485054      76.381693499236235      13.268890000000001
   147   2      78.909929226130544      77.743048049172017                15.25766
   148   2       80.27128377606634      76.284453888526528      17.371549999999999
   149   2      77.451335065485054      76.381693499236235      17.371549999999999
   150   2      78.909929226130544      77.743048049172017      19.360320000000002
   151   2       80.27128377606634      76.284453888526528                 21.4742
   152   2      77.451335065485054      76.381693499236235                 21.4742
   153   2      78.909929226130544      77.743048049172017      23.462969999999999
   154   2       80.27128377606634      76.284453888526528                25.57686
   155   2      77.451335065485054      76.381693499236235                25.57686
   156   2      78.909929226130544      77.743048049172017      27.565629999999999
   157   2       80.27128377606634      76.284453888526528      29.679510000000001
   158   2      77.451335065485054      76.381693499236235      29.679510000000001
   159   2      78.909929226130544      77.743048049172017      31.668279999999999
   160   2       80.27128377606634      76.284453888526528      33.782170000000001
   161   2      77.451335065485054      76.381693499236235      33.782170000000001
   162   2      78.909929226130544      77.743048049172017      35.770940000000003
   163   2       80.27128377606634      76.284453888526528      37.884819999999998
   164   2      77.451335065485054      76.381693499236235      37.884819999999998
   165   2      78.909929226130544      77.743048049172017                39.87359
   166   2       80.27128377606634      76.284453888526528      41.987479999999998
   167   2      77.451335065485054      76.381693499236235      41.987479999999998
   168   2      78.909929226130544      77.743048049172017                43.97625
   169   1      81.535391892109928      72.005918327852442      3.0874199999999998
   170   1      81.535391892109928      72.005918327852442      7.1900700000000004
   171   1      81.535391892109928      72.005918327852442      11.292730000000001
   172   1      81.535391892109928      72.005918327852442      15.395379999999999
   173   1      81.535391892109928      72.005918327852442                19.49804
   174   1      81.535391892109928      72.005918327852442                 23.6007
   175   1      81.535391892109928      72.005918327852442                27.70335
   176   1      81.535391892109928      72.005918327852442      31.806010000000001
   177   1      81.535391892109928      72.005918327852442      35.908659999999998
   178   1      81.535391892109928      72.005918327852442      40.011319999999998
   179   1      81.535391892109928      72.005918327852442      44.113970000000002
   180   3      81.632631502819621      74.825867038433714      5.2105499999999996
   181   3      81.632631502819621      74.825867038433714      9.3132000000000001
   182   3      81.632631502819621      74.825867038433714                13.41586
   183   3      81.632631502819621      74.825867038433714      17.518509999999999
   184   3      81.632631502819621      74.825867038433714      21.621169999999999
   185   3      81.632631502819621      74.825867038433714                25.72382
   186   3      81.632631502819621      74.825867038433714                29.82648
   187   3      81.632631502819621      74.825867038433714      33.929139999999997
   188   3      81.632631502819621      74.825867038433714      38.031790000000001
   189   3      81.632631502819621      74.825867038433714      42.134450000000001
   190   2      81.632631502819621      74.825867038433714      2.9496899999999999
   191   2      80.174037342174131      73.464512488497931                 5.06358
   192   2      81.632631502819621      74.825867038433714      7.0523499999999997
   193   2      80.174037342174131      73.464512488497931      9.1662400000000002
   194   2      81.632631502819621      74.825867038433714      11.154999999999999
   195   2      80.174037342174131      73.464512488497931      13.268890000000001
   196   2      81.632631502819621      74.825867038433714                15.25766
   197   2      80.174037342174131      73.464512488497931      17.371549999999999
   198   2      81.632631502819621      74.825867038433714      19.360320000000002
   199   2      80.174037342174131      73.464512488497931                 21.4742
   200   2      81.632631502819621      74.825867038433714      23.462969999999999
   201   2      80.174037342174131      73.464512488497931                25.57686
   202   2      81.632631502819621      74.825867038433714      27.565629999999999
   203   2      80.174037342174131      73.464512488497931      29.679510000000001
   204   2      81.632631502819621      74.825867038433714      31.668279999999999
   205   2      80.174037342174131      73.464512488497931      33.782170000000001
   206   2      81.632631502819621      74.825867038433714      35.770940000000003
   207   2      80.174037342174131      73.464512488497931      37.884819999999998
   208   2      81.632631502819621      74.825867038433714                39.87359
   209   2      80.174037342174131      73.464512488497931      41.987479999999998
   210   2      81.632631502819621      74.825867038433714                43.97625
   211   1      67.727373994515119      80.951955202592089      3.0874199999999998
   212   1      67.727373994515119      80.951955202592089      7.1900700000000004
   213   1      67.727373994515119      80.951955202592089      11.292730000000001
   214   1      67.727373994515119      80.951955202592089      15.395379999999999
   215   1      67.727373994515119      80.951955202592089                19.49804
   216   1      67.727373994515119      80.951955202592089                 23.6007
   217   1      67.727373994515119      80.951955202592089                27.70335
   218   1      67.727373994515119      80.951955202592089      31.806010000000001
   219   1      67.727373994515119      80.951955202592089      35.908659999999998
   220   1      67.727373994515119      80.951955202592089      40.011319999999998
   221   1      67.727373994515119      80.951955202592089      44.113970000000002
   222   1      70.450083094386699       78.03476688130111      3.0874199999999998
   223   1      70.450083094386699       78.03476688130111      7.1900700000000004
   224   1      70.450083094386699       78.03476688130111      11.292730000000001
   225   1      70.450083094386699       78.03476688130111      15.395379999999999
   226   1      70.450083094386699       78.03476688130111                19.49804
   227   1      70.450083094386699       78.03476688130111                 23.6007
   228   1      70.450083094386699       78.03476688130111                27.70335
   229   1      70.450083094386699       78.03476688130111      31.806010000000001
   230   1      70.450083094386699       78.03476688130111      35.908659999999998
   231   1      70.450083094386699       78.03476688130111      40.011319999999998
   232   1      70.450083094386699       78.03476688130111      44.113970000000002
   233   3      70.547322705096406      80.854715591882396      5.2105499999999996
   234   3      70.547322705096406      80.854715591882396      9.3132000000000001
   235   3      70.547322705096406      80.854715591882396                13.41586
   236   3      70.547322705096406      80.854715591882396      17.518509999999999
   237   3      70.547322705096406      80.854715591882396      21.621169999999999
   238   3      70.547322705096406      80.854715591882396                25.72382
   239   3      70.547322705096406      80.854715591882396                29.82648
   240   3      70.547322705096406      80.854715591882396      33.929139999999997
   241   3      70.547322705096406      80.854715591882396      38.031790000000001
   242   3      70.547322705096406      80.854715591882396      42.134450000000001
   243   2      70.547322705096406      80.854715591882396      2.9496899999999999
   244   2      71.908677255032188      79.396121431236907                 5.06358
   245   2      69.088728544450916      79.493361041946599                 5.06358
   246   2      70.547322705096406      80.854715591882396      7.0523499999999997
   247   2      71.908677255032188      79.396121431236907      9.1662400000000002
   248   2      69.088728544450916      79.493361041946599      9.1662400000000002
   249   2      70.547322705096406      80.854715591882396      11.154999999999999
   250   2      71.908677255032188      79.396121431236907      13.268890000000001
   251   2      69.088728544450916      79.493361041946599      13.268890000000001
   252   2      70.547322705096406      80.854715591882396                15.25766
   253   2      71.908677255032188      79.396121431236907      17.371549999999999
   254   2      69.088728544450916      79.493361041946599      17.371549999999999
   255   2      70.547322705096406      80.854715591882396      19.360320000000002
   256   2      71.908677255032188      79.396121431236907                 21.4742
   257   2      69.088728544450916      79.493361041946599                 21.4742
   258   2      70.547322705096406      80.854715591882396      23.462969999999999
   259   2      71.908677255032188      79.396121431236907                25.57686
   260   2      69.088728544450916      79.493361041946599                25.57686
   261   2      70.547322705096406      80.854715591882396      27.565629999999999
   262   2      71.908677255032188      79.396121431236907      29.679510000000001
   263   2      69.088728544450916      79.493361041946599      29.679510000000001
   264   2      70.547322705096406      80.854715591882396      31.668279999999999
   265   2      71.908677255032188      79.396121431236907      33.782170000000001
   266   2      69.088728544450916      79.493361041946599      33.782170000000001
   267   2      70.547322705096406      80.854715591882396      35.770940000000003
   268   2      71.908677255032188      79.396121431236907      37.884819999999998
   269   2      69.088728544450916      79.493361041946599      37.884819999999998
   270   2      70.547322705096406      80.854715591882396                39.87359
   271   2      71.908677255032188      79.396121431236907      41.987479999999998
   272   2      69.088728544450916      79.493361041946599      41.987479999999998
   273   2      70.547322705096406      80.854715591882396                43.97625
   274   1      73.172792194258292      75.117578560010131      3.0874199999999998
   275   1      73.172792194258292      75.117578560010131      7.1900700000000004
   276   1      73.172792194258292      75.117578560010131      11.292730000000001
   277   1      73.172792194258292      75.117578560010131      15.395379999999999
   278   1      73.172792194258292      75.117578560010131                19.49804
   279   1      73.172792194258292      75.117578560010131                 23.6007
   280   1      73.172792194258292      75.117578560010131                27.70335
   281   1      73.172792194258292      75.117578560010131      31.806010000000001
   282   1      73.172792194258292      75.117578560010131      35.908659999999998
   283   1      73.172792194258292      75.117578560010131      40.011319999999998
   284   1      73.172792194258292      75.117578560010131      44.113970000000002
   285   3      73.270031804967985      77.937527270591417      5.2105499999999996
   286   3      73.270031804967985      77.937527270591417      9.3132000000000001
   287   3      73.270031804967985      77.937527270591417                13.41586
   288   3      73.270031804967985      77.937527270591417      17.518509999999999
   289   3      73.270031804967985      77.937527270591417      21.621169999999999
   290   3      73.270031804967985      77.937527270591417                25.72382
   291   3      73.270031804967985      77.937527270591417                29.82648
   292   3      73.270031804967985      77.937527270591417      33.929139999999997
   293   3      73.270031804967985      77.937527270591417      38.031790000000001
   294   3      73.270031804967985      77.937527270591417      42.134450000000001
   295   2      73.270031804967985      77.937527270591417      2.9496899999999999
   296   2      74.631386354903782      76.478933109945928                 5.06358
   297   2      71.811437644322496       76.57617272065562                 5.06358
   298   2      73.270031804967985      77.937527270591417      7.0523499999999997
   299   2      74.631386354903782      76.478933109945928      9.1662400000000002
   300   2      71.811437644322496       76.57617272065562      9.1662400000000002
   301   2      73.270031804967985      77.937527270591417      11.154999999999999
   302   2      74.631386354903782      76.478933109945928      13.268890000000001
   303   2      71.811437644322496       76.57617272065562      13.268890000000001
   304   2      73.270031804967985      77.937527270591417                15.25766
   305   2      74.631386354903782      76.478933109945928      17.371549999999999
   306   2      71.811437644322496       76.57617272065562      17.371549999999999
   307   2      73.270031804967985      77.937527270591417      19.360320000000002
   308   2      74.631386354903782      76.478933109945928                 21.4742
   309   2      71.811437644322496       76.57617272065562                 21.4742
   310   2      73.270031804967985      77.937527270591417      23.462969999999999
   311   2      74.631386354903782      76.478933109945928                25.57686
   312   2      71.811437644322496       76.57617272065562                25.57686
   313   2      73.270031804967985      77.937527270591417      27.565629999999999
   314   2      74.631386354903782      76.478933109945928      29.679510000000001
   315   2      71.811437644322496       76.57617272065562      29.679510000000001
   316   2      73.270031804967985      77.937527270591417      31.668279999999999
   317   2      74.631386354903782      76.478933109945928      33.782170000000001
   318   2      71.811437644322496       76.57617272065562      33.782170000000001
   319   2      73.270031804967985      77.937527270591417      35.770940000000003
   320   2      74.631386354903782      76.478933109945928      37.884819999999998
   321   2      71.811437644322496       76.57617272065562      37.884819999999998
   322   2      73.270031804967985      77.937527270591417                39.87359
   323   2      74.631386354903782      76.478933109945928      41.987479999999998
   324   2      71.811437644322496       76.57617272065562      41.987479999999998
   325   2      73.270031804967985      77.937527270591417                43.97625
   326   1      75.895501294129872      72.200390238719152      3.0874199999999998
   327   1      75.895501294129872      72.200390238719152      7.1900700000000004
   328   1      75.895501294129872      72.200390238719152      11.292730000000001
   329   1      75.895501294129872      72.200390238719152      15.395379999999999
   330   1      75.895501294129872      72.200390238719152                19.49804
   331   1      75.895501294129872      72.200390238719152                 23.6007
   332   1      75.895501294129872      72.200390238719152                27.70335
   333   1      75.895501294129872      72.200390238719152      31.806010000000001
   334   1      75.895501294129872      72.200390238719152      35.908659999999998
   335   1      75.895501294129872      72.200390238719152      40.011319999999998
   336   1      75.895501294129872      72.200390238719152      44.113970000000002
   337   3      75.992740904839565      75.020338949300438      5.2105499999999996
   338   3      75.992740904839565      75.020338949300438      9.3132000000000001
   339   3      75.992740904839565      75.020338949300438                13.41586
   340   3      75.992740904839565      75.020338949300438      17.518509999999999
   341   3      75.992740904839565      75.020338949300438      21.621169999999999
   342   3      75.992740904839565      75.020338949300438                25.72382
   343   3      75.992740904839565      75.020338949300438                29.82648
   344   3      75.992740904839565      75.020338949300438      33.929139999999997
   345   3      75.992740904839565      75.020338949300438      38.031790000000001
   346   3      75.992740904839565      75.020338949300438      42.134450000000001
   347   2      75.992740904839565      75.020338949300438      2.9496899999999999
   348   2      77.354095454775361      73.561744788654948                 5.06358
   349   2      74.534146744194075      73.658984399364641                 5.06358
   350   2      75.992740904839565      75.020338949300438      7.0523499999999997
   351   2      77.354095454775361      73.561744788654948      9.1662400000000002
   352   2      74.534146744194075      73.658984399364641      9.1662400000000002
   353   2      75.992740904839565      75.020338949300438      11.154999999999999
   354   2      77.354095454775361      73.561744788654948      13.268890000000001
   355   2      74.534146744194075      73.658984399364641      13.268890000000001
   356   2      75.992740904839565      75.020338949300438                15.25766
   357   2      77.354095454775361      73.561744788654948      17.371549999999999