# LAMMPS data file written by OVITO Basic 3.10.1

43784 atoms
3 atom types

0.0 81.8757336506 xlo xhi
0.0 81.8757336506 ylo yhi
0.0 135.328557986 zlo zhi

Masses

1 137.3269999647  # Ba
2 15.9989999959  # O
3 47.8669999877  # Ti

Atoms  # atomic

1 1 79.0071688368 80.5629967598 3.08742
2 1 79.0071688368 80.5629967598 7.19007
3 1 79.0071688368 80.5629967598 11.29273
4 1 79.0071688368 80.5629967598 15.39538
5 1 79.0071688368 80.5629967598 19.49804
6 1 79.0071688368 80.5629967598 23.6007
7 1 79.0071688368 80.5629967598 27.70335
8 1 79.0071688368 80.5629967598 31.80601
9 1 79.0071688368 80.5629967598 35.90866
10 1 79.0071688368 80.5629967598 40.01132
11 1 79.0071688368 80.5629967598 44.11397
12 1 81.7298779367 77.6458084385 3.08742
13 1 81.7298779367 77.6458084385 7.19007
14 1 81.7298779367 77.6458084385 11.29273
15 1 81.7298779367 77.6458084385 15.39538
16 1 81.7298779367 77.6458084385 19.49804
17 1 81.7298779367 77.6458084385 23.6007
18 1 81.7298779367 77.6458084385 27.70335
19 1 81.7298779367 77.6458084385 31.80601
20 1 81.7298779367 77.6458084385 35.90866
21 1 81.7298779367 77.6458084385 40.01132
22 1 81.7298779367 77.6458084385 44.11397
23 3 81.8271175474 80.465757149 5.21055
24 3 81.8271175474 80.465757149 9.3132
25 3 81.8271175474 80.465757149 13.41586
26 3 81.8271175474 80.465757149 17.51851
27 3 81.8271175474 80.465757149 21.62117
28 3 81.8271175474 80.465757149 25.72382
29 3 81.8271175474 80.465757149 29.82648
30 3 81.8271175474 80.465757149 33.92914
31 3 81.8271175474 80.465757149 38.03179
32 3 81.8271175474 80.465757149 42.13445
33 2 81.8271175474 80.465757149 2.94969
34 2 80.3685233868 79.1044025991 5.06358
35 2 81.8271175474 80.465757149 7.05235
36 2 80.3685233868 79.1044025991 9.16624
37 2 81.8271175474 80.465757149 11.155
38 2 80.3685233868 79.1044025991 13.26889
39 2 81.8271175474 80.465757149 15.25766
40 2 80.3685233868 79.1044025991 17.37155
41 2 81.8271175474 80.465757149 19.36032
42 2 80.3685233868 79.1044025991 21.4742
43 2 81.8271175474 80.465757149 23.46297
44 2 80.3685233868 79.1044025991 25.57686
45 2 81.8271175474 80.465757149 27.56563
46 2 80.3685233868 79.1044025991 29.67951
47 2 81.8271175474 80.465757149 31.66828
48 2 80.3685233868 79.1044025991 33.78217
49 2 81.8271175474 80.465757149 35.77094
50 2 80.3685233868 79.1044025991 37.88482
51 2 81.8271175474 80.465757149 39.87359
52 2 80.3685233868 79.1044025991 41.98748
53 2 81.8271175474 80.465757149 43.97625
54 1 73.3672714157 80.7574759812 3.08742
55 1 73.3672714157 80.7574759812 7.19007
56 1 73.3672714157 80.7574759812 11.29273
57 1 73.3672714157 80.7574759812 15.39538
58 1 73.3672714157 80.7574759812 19.49804
59 1 73.3672714157 80.7574759812 23.6007
60 1 73.3672714157 80.7574759812 27.70335
61 1 73.3672714157 80.7574759812 31.80601
62 1 73.3672714157 80.7574759812 35.90866
63 1 73.3672714157 80.7574759812 40.01132
64 1 73.3672714157 80.7574759812 44.11397
65 1 76.0899805155 77.8402876599 3.08742
66 1 76.0899805155 77.8402876599 7.19007
67 1 76.0899805155 77.8402876599 11.29273
68 1 76.0899805155 77.8402876599 15.39538
69 1 76.0899805155 77.8402876599 19.49804
70 1 76.0899805155 77.8402876599 23.6007
71 1 76.0899805155 77.8402876599 27.70335
72 1 76.0899805155 77.8402876599 31.80601
73 1 76.0899805155 77.8402876599 35.90866
74 1 76.0899805155 77.8402876599 40.01132
75 1 76.0899805155 77.8402876599 44.11397
76 3 76.1872201263 80.6602363705 5.21055
77 3 76.1872201263 80.6602363705 9.3132
78 3 76.1872201263 80.6602363705 13.41586
79 3 76.1872201263 80.6602363705 17.51851
80 3 76.1872201263 80.6602363705 21.62117
81 3 76.1872201263 80.6602363705 25.72382
82 3 76.1872201263 80.6602363705 29.82648
83 3 76.1872201263 80.6602363705 33.92914
84 3 76.1872201263 80.6602363705 38.03179
85 3 76.1872201263 80.6602363705 42.13445
86 2 76.1872201263 80.6602363705 2.94969
87 2 77.5485746762 79.2016422098 5.06358
88 2 74.7286259656 79.2988818205 5.06358
89 2 76.1872201263 80.6602363705 7.05235
90 2 77.5485746762 79.2016422098 9.16624
91 2 74.7286259656 79.2988818205 9.16624
92 2 76.1872201263 80.6602363705 11.155
93 2 77.5485746762 79.2016422098 13.26889
94 2 74.7286259656 79.2988818205 13.26889
95 2 76.1872201263 80.6602363705 15.25766
96 2 77.5485746762 79.2016422098 17.37155
97 2 74.7286259656 79.2988818205 17.37155
98 2 76.1872201263 80.6602363705 19.36032
99 2 77.5485746762 79.2016422098 21.4742
100 2 74.7286259656 79.2988818205 21.4742
101 2 76.1872201263 80.6602363705 23.46297
102 2 77.5485746762 79.2016422098 25.57686
103 2 74.7286259656 79.2988818205 25.57686
104 2 76.1872201263 80.6602363705 27.56563
105 2 77.5485746762 79.2016422098 29.67951
106 2 74.7286259656 79.2988818205 29.67951
107 2 76.1872201263 80.6602363705 31.66828
108 2 77.5485746762 79.2016422098 33.78217
109 2 74.7286259656 79.2988818205 33.78217
110 2 76.1872201263 80.6602363705 35.77094
111 2 77.5485746762 79.2016422098 37.88482
112 2 74.7286259656 79.2988818205 37.88482
113 2 76.1872201263 80.6602363705 39.87359
114 2 77.5485746762 79.2016422098 41.98748
115 2 74.7286259656 79.2988818205 41.98748
116 2 76.1872201263 80.6602363705 43.97625
117 1 78.8126896154 74.9230993386 3.08742
118 1 78.8126896154 74.9230993386 7.19007
119 1 78.8126896154 74.9230993386 11.29273
120 1 78.8126896154 74.9230993386 15.39538
121 1 78.8126896154 74.9230993386 19.49804
122 1 78.8126896154 74.9230993386 23.6007
123 1 78.8126896154 74.9230993386 27.70335
124 1 78.8126896154 74.9230993386 31.80601
125 1 78.8126896154 74.9230993386 35.90866
126 1 78.8126896154 74.9230993386 40.01132
127 1 78.8126896154 74.9230993386 44.11397
128 3 78.9099292261 77.7430480492 5.21055
129 3 78.9099292261 77.7430480492 9.3132
130 3 78.9099292261 77.7430480492 13.41586
131 3 78.9099292261 77.7430480492 17.51851
132 3 78.9099292261 77.7430480492 21.62117
133 3 78.9099292261 77.7430480492 25.72382
134 3 78.9099292261 77.7430480492 29.82648
135 3 78.9099292261 77.7430480492 33.92914
136 3 78.9099292261 77.7430480492 38.03179
137 3 78.9099292261 77.7430480492 42.13445
138 2 78.9099292261 77.7430480492 2.94969
139 2 80.2712837761 76.2844538885 5.06358
140 2 77.4513350655 76.3816934992 5.06358
141 2 78.9099292261 77.7430480492 7.05235
142 2 80.2712837761 76.2844538885 9.16624
143 2 77.4513350655 76.3816934992 9.16624
144 2 78.9099292261 77.7430480492 11.155
145 2 80.2712837761 76.2844538885 13.26889
146 2 77.4513350655 76.3816934992 13.26889
147 2 78.9099292261 77.7430480492 15.25766
148 2 80.2712837761 76.2844538885 17.37155
149 2 77.4513350655 76.3816934992 17.37155
150 2 78.9099292261 77.7430480492 19.36032
151 2 80.2712837761 76.2844538885 21.4742
152 2 77.4513350655 76.3816934992 21.4742
153 2 78.9099292261 77.7430480492 23.46297
154 2 80.2712837761 76.2844538885 25.57686
155 2 77.4513350655 76.3816934992 25.57686
156 2 78.9099292261 77.7430480492 27.56563
157 2 80.2712837761 76.2844538885 29.67951
158 2 77.4513350655 76.3816934992 29.67951
159 2 78.9099292261 77.7430480492 31.66828
160 2 80.2712837761 76.2844538885 33.78217
161 2 77.4513350655 76.3816934992 33.78217
162 2 78.9099292261 77.7430480492 35.77094
163 2 80.2712837761 76.2844538885 37.88482
164 2 77.4513350655 76.3816934992 37.88482
165 2 78.9099292261 77.7430480492 39.87359
166 2 80.2712837761 76.2844538885 41.98748
167 2 77.4513350655 76.3816934992 41.98748
168 2 78.9099292261 77.7430480492 43.97625
169 1 81.5353918921 72.0059183279 3.08742
170 1 81.5353918921 72.0059183279 7.19007
171 1 81.5353918921 72.0059183279 11.29273
172 1 81.5353918921 72.0059183279 15.39538
173 1 81.5353918921 72.0059183279 19.49804
174 1 81.5353918921 72.0059183279 23.6007
175 1 81.5353918921 72.0059183279 27.70335
176 1 81.5353918921 72.0059183279 31.80601
177 1 81.5353918921 72.0059183279 35.90866
178 1 81.5353918921 72.0059183279 40.01132
179 1 81.5353918921 72.0059183279 44.11397
180 3 81.6326315028 74.8258670384 5.21055
181 3 81.6326315028 74.8258670384 9.3132
182 3 81.6326315028 74.8258670384 13.41586
183 3 81.6326315028 74.8258670384 17.51851
184 3 81.6326315028 74.8258670384 21.62117
185 3 81.6326315028 74.8258670384 25.72382
186 3 81.6326315028 74.8258670384 29.82648
187 3 81.6326315028 74.8258670384 33.92914
188 3 81.6326315028 74.8258670384 38.03179
189 3 81.6326315028 74.8258670384 42.13445
190 2 81.6326315028 74.8258670384 2.94969
191 2 80.1740373422 73.4645124885 5.06358
192 2 81.6326315028 74.8258670384 7.05235
193 2 80.1740373422 73.4645124885 9.16624
194 2 81.6326315028 74.8258670384 11.155
195 2 80.1740373422 73.4645124885 13.26889
196 2 81.6326315028 74.8258670384 15.25766
197 2 80.1740373422 73.4645124885 17.37155
198 2 81.6326315028 74.8258670384 19.36032
199 2 80.1740373422 73.4645124885 21.4742
200 2 81.6326315028 74.8258670384 23.46297
201 2 80.1740373422 73.4645124885 25.57686
202 2 81.6326315028 74.8258670384 27.56563
203 2 80.1740373422 73.4645124885 29.67951
204 2 81.6326315028 74.8258670384 31.66828
205 2 80.1740373422 73.4645124885 33.78217
206 2 81.6326315028 74.8258670384 35.77094
207 2 80.1740373422 73.4645124885 37.88482
208 2 81.6326315028 74.8258670384 39.87359
209 2 80.1740373422 73.4645124885 41.98748
210 2 81.6326315028 74.8258670384 43.97625
211 1 67.7273739945 80.9519552026 3.08742
212 1 67.7273739945 80.9519552026 7.19007
213 1 67.7273739945 80.9519552026 11.29273
214 1 67.7273739945 80.9519552026 15.39538
215 1 67.7273739945 80.9519552026 19.49804
216 1 67.7273739945 80.9519552026 23.6007
217 1 67.7273739945 80.9519552026 27.70335
218 1 67.7273739945 80.9519552026 31.80601
219 1 67.7273739945 80.9519552026 35.90866
220 1 67.7273739945 80.9519552026 40.01132
221 1 67.7273739945 80.9519552026 44.11397
222 1 70.4500830944 78.0347668813 3.08742
223 1 70.4500830944 78.0347668813 7.19007
224 1 70.4500830944 78.0347668813 11.29273
225 1 70.4500830944 78.0347668813 15.39538
226 1 70.4500830944 78.0347668813 19.49804
227 1 70.4500830944 78.0347668813 23.6007
228 1 70.4500830944 78.0347668813 27.70335
229 1 70.4500830944 78.0347668813 31.80601
230 1 70.4500830944 78.0347668813 35.90866
231 1 70.4500830944 78.0347668813 40.01132
232 1 70.4500830944 78.0347668813 44.11397
233 3 70.5473227051 80.8547155919 5.21055
234 3 70.5473227051 80.8547155919 9.3132
235 3 70.5473227051 80.8547155919 13.41586
236 3 70.5473227051 80.8547155919 17.51851
237 3 70.5473227051 80.8547155919 21.62117
238 3 70.5473227051 80.8547155919 25.72382
239 3 70.5473227051 80.8547155919 29.82648
240 3 70.5473227051 80.8547155919 33.92914
241 3 70.5473227051 80.8547155919 38.03179
242 3 70.5473227051 80.8547155919 42.13445
243 2 70.5473227051 80.8547155919 2.94969
244 2 71.908677255 79.3961214312 5.06358
245 2 69.0887285445 79.4933610419 5.06358
246 2 70.5473227051 80.8547155919 7.05235
247 2 71.908677255 79.3961214312 9.16624
248 2 69.0887285445 79.4933610419 9.16624
249 2 70.5473227051 80.8547155919 11.155
250 2 71.908677255 79.3961214312 13.26889
251 2 69.0887285445 79.4933610419 13.26889
252 2 70.5473227051 80.8547155919 15.25766
253 2 71.908677255 79.3961214312 17.37155
254 2 69.0887285445 79.4933610419 17.37155
255 2 70.5473227051 80.8547155919 19.36032
256 2 71.908677255 79.3961214312 21.4742
257 2 69.0887285445 79.4933610419 21.4742
258 2 70.5473227051 80.8547155919 23.46297
259 2 71.908677255 79.3961214312 25.57686
260 2 69.0887285445 79.4933610419 25.57686
261 2 70.5473227051 80.8547155919 27.56563
262 2 71.908677255 79.3961214312 29.67951
263 2 69.0887285445 79.4933610419 29.67951
264 2 70.5473227051 80.8547155919 31.66828
265 2 71.908677255 79.3961214312 33.78217
266 2 69.0887285445 79.4933610419 33.78217
267 2 70.5473227051 80.8547155919 35.77094
268 2 71.908677255 79.3961214312 37.88482
269 2 69.0887285445 79.4933610419 37.88482
270 2 70.5473227051 80.8547155919 39.87359
271 2 71.908677255 79.3961214312 41.98748
272 2 69.0887285445 79.4933610419 41.98748
273 2 70.5473227051 80.8547155919 43.97625
274 1 73.1727921943 75.11757856 3.08742
275 1 73.1727921943 75.11757856 7.19007
276 1 73.1727921943 75.11757856 11.29273
277 1 73.1727921943 75.11757856 15.39538
278 1 73.1727921943 75.11757856 19.49804
279 1 73.1727921943 75.11757856 23.6007
280 1 73.1727921943 75.11757856 27.70335
281 1 73.1727921943 75.11757856 31.80601
282 1 73.1727921943 75.11757856 35.90866
283 1 73.1727921943 75.11757856 40.01132
284 1 73.1727921943 75.11757856 44.11397
285 3 73.270031805 77.9375272706 5.21055
286 3 73.270031805 77.9375272706 9.3132
287 3 73.270031805 77.9375272706 13.41586
288 3 73.270031805 77.9375272706 17.51851
289 3 73.270031805 77.9375272706 21.62117
290 3 73.270031805 77.9375272706 25.72382
291 3 73.270031805 77.9375272706 29.82648
292 3 73.270031805 77.9375272706 33.92914
293 3 73.270031805 77.9375272706 38.03179
294 3 73.270031805 77.9375272706 42.13445
295 2 73.270031805 77.9375272706 2.94969
296 2 74.6313863549 76.4789331099 5.06358
297 2 71.8114376443 76.5761727207 5.06358
298 2 73.270031805 77.9375272706 7.05235
299 2 74.6313863549 76.4789331099 9.16624
300 2 71.8114376443 76.5761727207 9.16624
301 2 73.270031805 77.9375272706 11.155
302 2 74.6313863549 76.4789331099 13.26889
303 2 71.8114376443 76.5761727207 13.26889
304 2 73.270031805 77.9375272706 15.25766
305 2 74.6313863549 76.4789331099 17.37155
306 2 71.8114376443 76.5761727207 17.37155
307 2 73.270031805 77.9375272706 19.36032
308 2 74.6313863549 76.4789331099 21.4742
309 2 71.8114376443 76.5761727207 21.4742
310 2 73.270031805 77.9375272706 23.46297
311 2 74.6313863549 76.4789331099 25.57686
312 2 71.8114376443 76.5761727207 25.57686
313 2 73.270031805 77.9375272706 27.56563
314 2 74.6313863549 76.4789331099 29.67951
315 2 71.8114376443 76.5761727207 29.67951
316 2 73.270031805 77.9375272706 31.66828
317 2 74.6313863549 76.4789331099 33.78217
318 2 71.8114376443 76.5761727207 33.78217
319 2 73.270031805 77.9375272706 35.77094
320 2 74.6313863549 76.4789331099 37.88482
321 2 71.8114376443 76.5761727207 37.88482
322 2 73.270031805 77.9375272706 39.87359
323 2 74.6313863549 76.4789331099 41.98748
324 2 71.8114376443 76.5761727207 41.98748
325 2 73.270031805 77.9375272706 43.97625
326 1 75.8955012941 72.2003902387 3.08742
327 1 75.8955012941 72.2003902387 7.19007
328 1 75.8955012941 72.2003902387 11.29273
329 1 75.8955012941 72.2003902387 15.39538
330 1 75.8955012941 72.2003902387 19.49804
331 1 75.8955012941 72.2003902387 23.6007
332 1 75.8955012941 72.2003902387 27.70335
333 1 75.8955012941 72.2003902387 31.80601
334 1 75.8955012941 72.2003902387 35.90866
335 1 75.8955012941 72.2003902387 40.01132
336 1 75.8955012941 72.2003902387 44.11397
337 3 75.9927409048 75.0203389493 5.21055
338 3 75.9927409048 75.0203389493 9.3132
339 3 75.9927409048 75.0203389493 13.41586
340 3 75.9927409048 75.0203389493 17.51851
341 3 75.9927409048 75.0203389493 21.62117
342 3 75.9927409048 75.0203389493 25.72382
343 3 75.9927409048 75.0203389493 29.82648
344 3 75.9927409048 75.0203389493 33.92914
345 3 75.9927409048 75.0203389493 38.03179
346 3 75.9927409048 75.0203389493 42.13445
347 2 75.9927409048 75.0203389493 2.94969
348 2 77.3540954548 73.5617447887 5.06358
349 2 74.5341467442 73.6589843994 5.06358
350 2 75.9927409048 75.0203389493 7.05235
351 2 77.3540954548 73.5617447887 9.16624
352 2 74.5341467442 73.6589843994 9.16624
353 2 75.9927409048 75.0203389493 11.155
354 2 77.3540954548 73.5617447887 13.26889
355 2 74.5341467442 73.6589843994 13.26889
356 2 75.9927409048 75.0203389493 15.25766
357 2 77.3540954548 73.5617447887 17.37155
358 2 74.5341467442 73.6589843994 17.37155
359 2 75.9927409048 75.0203389493 19.36032
360 2 77.3540954548 73.5617447887 21.4742
361 2 74.5341467442 73.6589843994 21.4742
362 2 75.9927409048 75.0203389493 23.46297
363 2 77.3540954548 73.5617447887 25.57686
364 2 74.5341467442 73.6589843994 25.57686
365 2 75.9927409048 75.0203389493 27.56563
366 2 77.3540954548 73.5617447887 29.67951
367 2 74.5341467442 73.6589843994 29.67951
368 2 75.9927409048 75.0203389493 31.66828
369 2 77.3540954548 73.5617447887 33.78217
370 2 74.5341467442 73.6589843994 33.78217
371 2 75.9927409048 75.0203389493 35.77094
372 2 77.3540954548 73.5617447887 37.88482
373 2 74.5341467442 73.6589843994 37.88482
374 2 75.9927409048 75.0203389493 39.87359
375 2 77.3540954548 73.5617447887 41.98748
376 2 74.5341467442 73.6589843994 41.98748
377 2 75.9927409048 75.0203389493 43.97625
378 1 78.6182035708 69.283209228 3.08742
379 1 78.6182035708 69.283209228 7.19007
380 1 78.6182035708 69.283209228 11.29273
381 1 78.6182035708 69.283209228 15.39538
382 1 78.6182035708 69.283209228 19.49804
383 1 78.6182035708 69.283209228 23.6007
384 1 78.6182035708 69.283209228 27.70335
385 1 78.6182035708 69.283209228 31.80601
386 1 78.6182035708 69.283209228 35.90866
387 1 78.6182035708 69.283209228 40.01132
388 1 78.6182035708 69.283209228 44.11397
389 3 78.7154431815 72.1031579386 5.21055
390 3 78.7154431815 72.1031579386 9.3132
391 3 78.7154431815 72.1031579386 13.41586
392 3 78.7154431815 72.1031579386 17.51851
393 3 78.7154431815 72.1031579386 21.62117
394 3 78.7154431815 72.1031579386 25.72382
395 3 78.7154431815 72.1031579386 29.82648
396 3 78.7154431815 72.1031579386 33.92914
397 3 78.7154431815 72.1031579386 38.03179
398 3 78.7154431815 72.1031579386 42.13445
399 2 78.7154431815 72.1031579386 2.94969
400 2 80.0767977315 70.6445637779 5.06358
401 2 77.2568490209 70.7418033886 5.06358
402 2 78.7154431815 72.1031579386 7.05235
403 2 80.0767977315 70.6445637779 9.16624
404 2 77.2568490209 70.7418033886 9.16624
405 2 78.7154431815 72.1031579386 11.155
406 2 80.0767977315 70.6445637779 13.26889
407 2 77.2568490209 70.7418033886 13.26889
408 2 78.7154431815 72.1031579386 15.25766
409 2 80.0767977315 70.6445637779 17.37155
410 2 77.2568490209 70.7418033886 17.37155
411 2 78.7154431815 72.1031579386 19.36032
412 2 80.0767977315 70.6445637779 21.4742
413 2 77.2568490209 70.7418033886 21.4742
414 2 78.7154431815 72.1031579386 23.46297
415 2 80.0767977315 70.6445637779 25.57686
416 2 77.2568490209 70.7418033886 25.57686
417 2 78.7154431815 72.1031579386 27.56563
418 2 80.0767977315 70.6445637779 29.67951
419 2 77.2568490209 70.7418033886 29.67951
420 2 78.7154431815 72.1031579386 31.66828
421 2 80.0767977315 70.6445637779 33.78217
422 2 77.2568490209 70.7418033886 33.78217
423 2 78.7154431815 72.1031579386 35.77094
424 2 80.0767977315 70.6445637779 37.88482
425 2 77.2568490209 70.7418033886 37.88482
426 2 78.7154431815 72.1031579386 39.87359
427 2 80.0767977315 70.6445637779 41.98748
428 2 77.2568490209 70.7418033886 41.98748
429 2 78.7154431815 72.1031579386 43.97625
430 1 81.3409126707 66.3660209067 3.08742
431 1 81.3409126707 66.3660209067 7.19007
432 1 81.3409126707 66.3660209067 11.29273
433 1 81.3409126707 66.3660209067 15.39538
434 1 81.3409126707 66.3660209067 19.49804
435 1 81.3409126707 66.3660209067 23.6007
436 1 81.3409126707 66.3660209067 27.70335
437 1 81.3409126707 66.3660209067 31.80601
438 1 81.3409126707 66.3660209067 35.90866
439 1 81.3409126707 66.3660209067 40.01132
440 1 81.3409126707 66.3660209067 44.11397
441 3 81.4381522814 69.1859696173 5.21055
442 3 81.4381522814 69.1859696173 9.3132
443 3 81.4381522814 69.1859696173 13.41586
444 3 81.4381522814 69.1859696173 17.51851
445 3 81.4381522814 69.1859696173 21.62117
446 3 81.4381522814 69.1859696173 25.72382
447 3 81.4381522814 69.1859696173 29.82648
448 3 81.4381522814 69.1859696173 33.92914
449 3 81.4381522814 69.1859696173 38.03179
450 3 81.4381522814 69.1859696173 42.13445
451 2 81.4381522814 69.1859696173 2.94969
452 2 79.9795581208 67.8246150673 5.06358
453 2 81.4381522814 69.1859696173 7.05235
454 2 79.9795581208 67.8246150673 9.16624
455 2 81.4381522814 69.1859696173 11.155
456 2 79.9795581208 67.8246150673 13.26889
457 2 81.4381522814 69.1859696173 15.25766
458 2 79.9795581208 67.8246150673 17.37155
459 2 81.4381522814 69.1859696173 19.36032
460 2 79.9795581208 67.8246150673 21.4742
461 2 81.4381522814 69.1859696173 23.46297
462 2 79.9795581208 67.8246150673 25.57686
463 2 81.4381522814 69.1859696173 27.56563
464 2 79.9795581208 67.8246150673 29.67951
465 2 81.4381522814 69.1859696173 31.66828
466 2 79.9795581208 67.8246150673 33.78217
467 2 81.4381522814 69.1859696173 35.77094
468 2 79.9795581208 67.8246150673 37.88482
469 2 81.4381522814 69.1859696173 39.87359
470 2 79.9795581208 67.8246150673 41.98748
471 2 81.4381522814 69.1859696173 43.97625
472 1 62.0874765734 81.146434424 3.08742
473 1 62.0874765734 81.146434424 7.19007
474 1 62.0874765734 81.146434424 11.29273
475 1 62.0874765734 81.146434424 15.39538
476 1 62.0874765734 81.146434424 19.49804
477 1 62.0874765734 81.146434424 23.6007
478 1 62.0874765734 81.146434424 27.70335
479 1 62.0874765734 81.146434424 31.80601
480 1 62.0874765734 81.146434424 35.90866
481 1 62.0874765734 81.146434424 40.01132
482 1 62.0874765734 81.146434424 44.11397
483 1 64.8101856732 78.2292461027 3.08742
484 1 64.8101856732 78.2292461027 7.19007
485 1 64.8101856732 78.2292461027 11.29273
486 1 64.8101856732 78.2292461027 15.39538
487 1 64.8101856732 78.2292461027 19.49804
488 1 64.8101856732 78.2292461027 23.6007
489 1 64.8101856732 78.2292461027 27.70335
490 1 64.8101856732 78.2292461027 31.80601
491 1 64.8101856732 78.2292461027 35.90866
492 1 64.8101856732 78.2292461027 40.01132
493 1 64.8101856732 78.2292461027 44.11397
494 3 64.9074252839 81.0491948133 5.21055
495 3 64.9074252839 81.0491948133 9.3132
496 3 64.9074252839 81.0491948133 13.41586
497 3 64.9074252839 81.0491948133 17.51851
498 3 64.9074252839 81.0491948133 21.62117
499 3 64.9074252839 81.0491948133 25.72382
500 3 64.9074252839 81.0491948133 29.82648
501 3 64.9074252839 81.0491948133 33.92914
502 3 64.9074252839 81.0491948133 38.03179
503 3 64.9074252839 81.0491948133 42.13445
504 2 64.9074252839 81.0491948133 2.94969
505 2 66.2687798339 79.5906006527 5.06358
506 2 63.4488311233 79.6878402634 5.06358
507 2 64.9074252839 81.0491948133 7.05235
508 2 66.2687798339 79.5906006527 9.16624
509 2 63.4488311233 79.6878402634 9.16624
510 2 64.9074252839 81.0491948133 11.155
511 2 66.2687798339 79.5906006527 13.26889
512 2 63.4488311233 79.6878402634 13.26889
513 2 64.9074252839 81.0491948133 15.25766
514 2 66.2687798339 79.5906006527 17.37155
515 2 63.4488311233 79.6878402634 17.37155
516 2 64.9074252839 81.0491948133 19.36032
517 2 66.2687798339 79.5906006527 21.4742
518 2 63.4488311233 79.6878402634 21.4742
519 2 64.9074252839 81.0491948133 23.46297
520 2 66.2687798339 79.5906006527 25.57686
521 2 63.4488311233 79.6878402634 25.57686
522 2 64.9074252839 81.0491948133 27.56563
523 2 66.2687798339 79.5906006527 29.67951
524 2 63.4488311233 79.6878402634 29.67951
525 2 64.9074252839 81.0491948133 31.66828
526 2 66.2687798339 79.5906006527 33.78217
527 2 63.4488311233 79.6878402634 33.78217
528 2 64.9074252839 81.0491948133 35.77094
529 2 66.2687798339 79.5906006527 37.88482
530 2 63.4488311233 79.6878402634 37.88482
531 2 64.9074252839 81.0491948133 39.87359
532 2 66.2687798339 79.5906006527 41.98748
533 2 63.4488311233 79.6878402634 41.98748
534 2 64.9074252839 81.0491948133 43.97625
535 1 67.5328947731 75.3120577814 3.08742
536 1 67.5328947731 75.3120577814 7.19007
537 1 67.5328947731 75.3120577814 11.29273
538 1 67.5328947731 75.3120577814 15.39538
539 1 67.5328947731 75.3120577814 19.49804
540 1 67.5328947731 75.3120577814 23.6007
541 1 67.5328947731 75.3120577814 27.70335
542 1 67.5328947731 75.3120577814 31.80601
543 1 67.5328947731 75.3120577814 35.90866
544 1 67.5328947731 75.3120577814 40.01132
545 1 67.5328947731 75.3120577814 44.11397
546 3 67.6301343838 78.132006492 5.21055
547 3 67.6301343838 78.132006492 9.3132
548 3 67.6301343838 78.132006492 13.41586
549 3 67.6301343838 78.132006492 17.51851
550 3 67.6301343838 78.132006492 21.62117
551 3 67.6301343838 78.132006492 25.72382
552 3 67.6301343838 78.132006492 29.82648
553 3 67.6301343838 78.132006492 33.92914
554 3 67.6301343838 78.132006492 38.03179
555 3 67.6301343838 78.132006492 42.13445
556 2 67.6301343838 78.132006492 2.94969
557 2 68.9914889337 76.6734123314 5.06358
558 2 66.1715402232 76.7706519421 5.06358
559 2 67.6301343838 78.132006492 7.05235
560 2 68.9914889337 76.6734123314 9.16624
561 2 66.1715402232 76.7706519421 9.16624
562 2 67.6301343838 78.132006492 11.155
563 2 68.9914889337 76.6734123314 13.26889
564 2 66.1715402232 76.7706519421 13.26889
565 2 67.6301343838 78.132006492 15.25766
566 2 68.9914889337 76.6734123314 17.37155
567 2 66.1715402232 76.7706519421 17.37155
568 2 67.6301343838 78.132006492 19.36032
569 2 68.9914889337 76.6734123314 21.4742
570 2 66.1715402232 76.7706519421 21.4742
571 2 67.6301343838 78.132006492 23.46297
572 2 68.9914889337 76.6734123314 25.57686
573 2 66.1715402232 76.7706519421 25.57686
574 2 67.6301343838 78.132006492 27.56563
575 2 68.9914889337 76.6734123314 29.67951
576 2 66.1715402232 76.7706519421 29.67951
577 2 67.6301343838 78.132006492 31.66828
578 2 68.9914889337 76.6734123314 33.78217
579 2 66.1715402232 76.7706519421 33.78217
580 2 67.6301343838 78.132006492 35.77094
581 2 68.9914889337 76.6734123314 37.88482
582 2 66.1715402232 76.7706519421 37.88482
583 2 67.6301343838 78.132006492 39.87359
584 2 68.9914889337 76.6734123314 41.98748
585 2 66.1715402232 76.7706519421 41.98748
586 2 67.6301343838 78.132006492 43.97625
587 1 70.255603873 72.3948694601 3.08742
588 1 70.255603873 72.3948694601 7.19007
589 1 70.255603873 72.3948694601 11.29273
590 1 70.255603873 72.3948694601 15.39538
591 1 70.255603873 72.3948694601 19.49804
592 1 70.255603873 72.3948694601 23.6007
593 1 70.255603873 72.3948694601 27.70335
594 1 70.255603873 72.3948694601 31.80601
595 1 70.255603873 72.3948694601 35.90866
596 1 70.255603873 72.3948694601 40.01132
597 1 70.255603873 72.3948694601 44.11397
598 3 70.3528434837 75.2148181707 5.21055
599 3 70.3528434837 75.2148181707 9.3132
600 3 70.3528434837 75.2148181707 13.41586
601 3 70.3528434837 75.2148181707 17.51851
602 3 70.3528434837 75.2148181707 21.62117
603 3 70.3528434837 75.2148181707 25.72382
604 3 70.3528434837 75.2148181707 29.82648
605 3 70.3528434837 75.2148181707 33.92914
606 3 70.3528434837 75.2148181707 38.03179
607 3 70.3528434837 75.2148181707 42.13445
608 2 70.3528434837 75.2148181707 2.94969
609 2 71.7141980336 73.7562240101 5.06358
610 2 68.894249323 73.8534636208 5.06358
611 2 70.3528434837 75.2148181707 7.05235
612 2 71.7141980336 73.7562240101 9.16624
613 2 68.894249323 73.8534636208 9.16624
614 2 70.3528434837 75.2148181707 11.155
615 2 71.7141980336 73.7562240101 13.26889
616 2 68.894249323 73.8534636208 13.26889
617 2 70.3528434837 75.2148181707 15.25766
618 2 71.7141980336 73.7562240101 17.37155
619 2 68.894249323 73.8534636208 17.37155
620 2 70.3528434837 75.2148181707 19.36032
621 2 71.7141980336 73.7562240101 21.4742
622 2 68.894249323 73.8534636208 21.4742
623 2 70.3528434837 75.2148181707 23.46297
624 2 71.7141980336 73.7562240101 25.57686
625 2 68.894249323 73.8534636208 25.57686
626 2 70.3528434837 75.2148181707 27.56563
627 2 71.7141980336 73.7562240101 29.67951
628 2 68.894249323 73.8534636208 29.67951
629 2 70.3528434837 75.2148181707 31.66828
630 2 71.7141980336 73.7562240101 33.78217
631 2 68.894249323 73.8534636208 33.78217
632 2 70.3528434837 75.2148181707 35.77094
633 2 71.7141980336 73.7562240101 37.88482
634 2 68.894249323 73.8534636208 37.88482
635 2 70.3528434837 75.2148181707 39.87359
636 2 71.7141980336 73.7562240101 41.98748
637 2 68.894249323 73.8534636208 41.98748
638 2 70.3528434837 75.2148181707 43.97625
639 1 72.9783129728 69.4776811388 3.08742
640 1 72.9783129728 69.4776811388 7.19007
641 1 72.9783129728 69.4776811388 11.29273
642 1 72.9783129728 69.4776811388 15.39538
643 1 72.9783129728 69.4776811388 19.49804
644 1 72.9783129728 69.4776811388 23.6007
645 1 72.9783129728 69.4776811388 27.70335
646 1 72.9783129728 69.4776811388 31.80601
647 1 72.9783129728 69.4776811388 35.90866
648 1 72.9783129728 69.4776811388 40.01132
649 1 72.9783129728 69.4776811388 44.11397
650 3 73.0755525835 72.2976298494 5.21055
651 3 73.0755525835 72.2976298494 9.3132
652 3 73.0755525835 72.2976298494 13.41586
653 3 73.0755525835 72.2976298494 17.51851
654 3 73.0755525835 72.2976298494 21.62117
655 3 73.0755525835 72.2976298494 25.72382
656 3 73.0755525835 72.2976298494 29.82648
657 3 73.0755525835 72.2976298494 33.92914
658 3 73.0755525835 72.2976298494 38.03179
659 3 73.0755525835 72.2976298494 42.13445
660 2 73.0755525835 72.2976298494 2.94969
661 2 74.4369071335 70.8390356888 5.06358
662 2 71.6169584229 70.9362752995 5.06358
663 2 73.0755525835 72.2976298494 7.05235
664 2 74.4369071335 70.8390356888 9.16624
665 2 71.6169584229 70.9362752995 9.16624
666 2 73.0755525835 72.2976298494 11.155
667 2 74.4369071335 70.8390356888 13.26889
668 2 71.6169584229 70.9362752995 13.26889
669 2 73.0755525835 72.2976298494 15.25766
670 2 74.4369071335 70.8390356888 17.37155
671 2 71.6169584229 70.9362752995 17.37155
672 2 73.0755525835 72.2976298494 19.36032
673 2 74.4369071335 70.8390356888 21.4742
674 2 71.6169584229 70.9362752995 21.4742
675 2 73.0755525835 72.2976298494 23.46297
676 2 74.4369071335 70.8390356888 25.57686
677 2 71.6169584229 70.9362752995 25.57686
678 2 73.0755525835 72.2976298494 27.56563
679 2 74.4369071335 70.8390356888 29.67951
680 2 71.6169584229 70.9362752995 29.67951
681 2 73.0755525835 72.2976298494 31.66828
682 2 74.4369071335 70.8390356888 33.78217
683 2 71.6169584229 70.9362752995 33.78217
684 2 73.0755525835 72.2976298494 35.77094
685 2 74.4369071335 70.8390356888 37.88482
686 2 71.6169584229 70.9362752995 37.88482
687 2 73.0755525835 72.2976298494 39.87359
688 2 74.4369071335 70.8390356888 41.98748
689 2 71.6169584229 70.9362752995 41.98748
690 2 73.0755525835 72.2976298494 43.97625
691 1 75.7010152495 66.5605001281 3.08742
692 1 75.7010152495 66.5605001281 7.19007
693 1 75.7010152495 66.5605001281 11.29273
694 1 75.7010152495 66.5605001281 15.39538
695 1 75.7010152495 66.5605001281 19.49804
696 1 75.7010152495 66.5605001281 23.6007
697 1 75.7010152495 66.5605001281 27.70335
698 1 75.7010152495 66.5605001281 31.80601
699 1 75.7010152495 66.5605001281 35.90866
700 1 75.7010152495 66.5605001281 40.01132
701 1 75.7010152495 66.5605001281 44.11397
702 3 75.7982548602 69.3804488387 5.21055