(written by ASE)

182 atoms
3 atom types

0.0      14.387516435922645  xlo xhi
0.0      14.387516435922645  ylo yhi
0.0      61.480760591600003  zlo zhi

Masses

     1       137.3269999646734 # Ba
     2      15.998999995884349 # O
     3      47.866999987686484 # Ti

Atoms # atomic

     1   2     0.27632944975155993      5.8102737693847093                12.30396
     2   3     0.27634331725646605      13.004066900689478                12.45093
     3   2     0.27634331725646605      13.004066900689478                10.19007
     4   2     0.27634331725646605      13.004066900689478      14.292730000000001
     5   1     0.27668168437616319      1.3834084218808156      3.0874199999999998
     6   1     0.27668168437616319      1.3834084218808156      7.1900700000000004
     7   2     0.27668168437616331      8.5771682711738109                 5.06358
     8   2     0.82970945950977304      3.0434458316191528                12.30396
     9   1     0.82972332701467888      10.237238962923923                 10.3278
    10   1     0.82972332701467888      10.237238962923923                14.43045
    11   2     0.83004782662947019      11.343998982440349                 5.06358
    12   3     0.83004782662947085      4.1502391331473527      5.2105499999999996
    13   2     0.83004782662947085      4.1502391331473527      2.9496899999999999
    14   2     0.83004782662947085      4.1502391331473527      7.0523499999999997
    15   3      1.3830534137552319      7.4703777431465932                12.45093
    16   2      1.3830534137552319      7.4703777431465932                10.19007
    17   2      1.3830534137552319      7.4703777431465932      14.292730000000001
    18   2      1.3830756017630805      0.2766206673545783                12.30396
    19   1       1.383413968882778      6.9170698444138896      3.0874199999999998
    20   1       1.383413968882778      6.9170698444138896      7.1900700000000004
    21   2      1.3834139688827789      14.110829693706886                 5.06358
    22   1      1.9364334235134448      4.7035498053810372                 10.3278
    23   1      1.9364334235134448      4.7035498053810372                14.43045
    24   2      1.9364472910183503      11.897342936685806                12.30396
    25   2      1.9367801111360856      2.4901407063874306                 5.06358
    26   3      1.9367801111360854      9.6839005556804256      5.2105499999999996
    27   2      1.9367801111360854      9.6839005556804256      2.9496899999999999
    28   2      1.9367801111360854      9.6839005556804256      7.0523499999999997
    29   3      2.4898051127687144      1.9367163206135192                12.45093
    30   2      2.4898051127687144      1.9367163206135192                10.19007
    31   2      2.4898051127687144      1.9367163206135192      14.292730000000001
    32   2      2.4898189802736206      9.1305094519182894                12.30396
    33   1      2.4901462533893932      12.450731266946965      3.0874199999999998
    34   1      2.4901462533893932      12.450731266946965      7.1900700000000004
    35   2      2.4901462533893923      5.2569714176539675                 5.06358
    36   2      3.0431629345190787      6.3636454586399784                12.30396
    37   1      3.0431768020239849      13.557402534431994                 10.3278
    38   1      3.0431768020239849      13.557402534431994                14.43045
    39   2      3.0435123956427002      8.0238021289205044                 5.06358
    40   3      3.0435068486407379     0.83005060013045162      5.2105499999999996
    41   2      3.0435068486407379     0.83005060013045162      2.9496899999999999
    42   2      3.0435068486407379     0.83005060013045162      7.0523499999999997
    43   2      3.5965290767723861      3.5968202943754037                12.30396
    44   3      3.5965429442772905      10.790613425680172                12.45093
    45   2      3.5965429442772905      10.790613425680172                10.19007
    46   2      3.5965429442772905      10.790613425680172      14.292730000000001
    47   1      3.5968785378960075      3.5968729908940449      3.0874199999999998
    48   1      3.5968785378960075      3.5968729908940449      7.1900700000000004
    49   2      3.5968785378960084      10.790632840187042                 5.06358
    50   2      4.1499090865305988     0.82999235660984827                12.30396
    51   1       4.149922954035504      8.0237854879146173                 10.3278
    52   1       4.149922954035504      8.0237854879146173                14.43045
    53   2      4.1502446801493145      13.557463551453578                 5.06358
    54   3      4.1502446801493145      6.3637037021605822      5.2105499999999996
    55   2      4.1502446801493145      6.3637037021605822      2.9496899999999999
    56   2      4.1502446801493145      6.3637037021605822      7.0523499999999997
    57   3      4.7032585877780191      5.2569159476343446                12.45093
    58   2      4.7032585877780191      5.2569159476343446                10.19007
    59   2      4.7032585877780191      5.2569159476343446      14.292730000000001
    60   2      4.7032807757858688      12.450678570428321                12.30396
    61   1      4.7036108224026236      9.1305344134271191      3.0874199999999998
    62   1      4.7036108224026236      9.1305344134271191      7.1900700000000004
    63   2      4.7036052754006601      1.9367828846370663                 5.06358
    64   1        5.25663305053427      2.4900963303717325                 10.3278
    65   1        5.25663305053427      2.4900963303717325                14.43045
    66   2      5.2566524650411388      9.6838811411735595                12.30396
    67   2      5.2569769646559292      4.7036052754006601                 5.06358
    68   3      5.2569769646559301      11.897365124693655      5.2105499999999996
    69   2      5.2569769646559301      11.897365124693655      2.9496899999999999
    70   2      5.2569769646559301      11.897365124693655      7.0523499999999997
    71   3      5.8100047397895409      14.110782544190206                12.45093
    72   2      5.8100047397895409      14.110782544190206                10.19007
    73   2      5.8100047397895409      14.110782544190206      14.292730000000001
    74   2      5.8100186072944453      6.9170559769089843                12.30396
    75   1      5.8103375599072749      0.2766844578771438      3.0874199999999998
    76   1      5.8103375599072749      0.2766844578771438      7.1900700000000004
    77   2      5.8103431069092375       7.470435986667197                 5.06358
    78   2      6.3633625615399039      4.1501919836306733                12.30396
    79   1        6.36337642904481      11.343949059422687                 10.3278
    80   1        6.36337642904481      11.343949059422687                14.43045
    81   2      6.3637092491625449      10.237266697933734                 5.06358
    82   3      6.3637037021605822       3.043515169143681      5.2105499999999996
    83   2      6.3637037021605822       3.043515169143681      2.9496899999999999
    84   2      6.3637037021605822       3.043515169143681      7.0523499999999997
    85   2      6.9167342507951739      1.3833584988631551                12.30396
    86   3      6.9167481183000774      8.5771516301679238                12.45093
    87   2      6.9167481183000774      8.5771516301679238                10.19007
    88   2      6.9167481183000774      8.5771516301679238      14.292730000000001
    89   1      6.9170753914158523      5.8103375599072749      3.0874199999999998
    90   1      6.9170753914158523      5.8103375599072749      7.1900700000000004
    91   2      6.9170753914158531      13.004097409200272                 5.06358
    92   2      7.4701003930484822      13.004053033184572                12.30396
    93   1      7.4701225810563301      5.8103320129053122                 10.3278
    94   1      7.4701225810563301      5.8103320129053122                14.43045
    95   2       7.470435986667197      1.3834167423837587                 5.06358
    96   3      7.4704415336691588      8.5771682711738109      5.2105499999999996
    97   2      7.4704415336691588      8.5771682711738109      2.9496899999999999
    98   2      7.4704415336691588      8.5771682711738109      7.0523499999999997
    99   3      8.0234582147988451      3.0434624726250399                12.45093
   100   2      8.0234582147988451      3.0434624726250399                10.19007
   101   2      8.0234582147988451      3.0434624726250399      14.292730000000001
   102   2      8.0234804028066939      10.237225095419017                12.30396
   103   1      8.0238076759224679      11.343998982440349      3.0874199999999998
   104   1      8.0238076759224679      11.343998982440349      7.1900700000000004
   105   2      8.0238021289205044      4.1502474536502962                 5.06358
   106   1      8.5768382245570578     0.27663453485948336                 10.3278
   107   1      8.5768382245570578     0.27663453485948336                14.43045
   108   2       8.576852092061964      7.4704276661642535                12.30396
   109   2      8.5771738181757744      6.9170698444138887                 5.06358
   110   3      8.5771738181757744      14.110829693706885      5.2105499999999996
   111   2      8.5771738181757744      14.110829693706885      2.9496899999999999
   112   2      8.5771738181757744      14.110829693706885      7.0523499999999997
   113   2      9.1301904993054599      4.7035359378761319                12.30396
   114   3      9.1302099138123278      11.897320748677958                12.45093
   115   2      9.1302099138123278      11.897320748677958                10.19007
   116   2      9.1302099138123278      11.897320748677958      14.292730000000001
   117   1      9.1305344134271191      2.4901490268903737      3.0874199999999998
   118   1      9.1305344134271191      2.4901490268903737      7.1900700000000004
   119   2      9.1305399604290827      9.6839005556804274                 5.06358
   120   2      9.6835621885607299       1.936738508621368                12.30396
   121   1      9.6835760560656343      9.1304955844133833                 10.3278
   122   1      9.6835760560656343      9.1304955844133833                14.43045
   123   2      9.6839061026823892      12.450731266946963                 5.06358
   124   3      9.6839005556804256      5.2569797381569101      5.2105499999999996
   125   2      9.6839005556804256      5.2569797381569101      2.9496899999999999
   126   2      9.6839005556804256      5.2569797381569101      7.0523499999999997
   127   3      10.236920010311092      6.3636315911350723                12.45093
   128   2      10.236920010311092      6.3636315911350723                10.19007
   129   2      10.236920010311092      6.3636315911350723      14.292730000000001
   130   2      10.236933877815998      13.557424722439841                12.30396
   131   1      10.237272244935697      8.0238021289205044      3.0874199999999998
   132   1      10.237272244935697      8.0238021289205044      7.1900700000000004
   133   2      10.237266697933734     0.83005060013045195                 5.06358
   134   1        10.7902861525644       3.596806426870498                 10.3278
   135   1        10.7902861525644       3.596806426870498                14.43045
   136   2       10.79030556707127      10.790591237672324                12.30396
   137   2       10.79063284018704      3.5968813113969875                 5.06358
   138   3      10.790638387189004       10.79063284018704      5.2105499999999996
   139   2      10.790638387189004       10.79063284018704      2.9496899999999999
   140   2      10.790638387189004       10.79063284018704      7.0523499999999997
   141   2      11.343643974314764      8.0237355648969579                12.30396
   142   3       11.34365784181967      0.8300089976157341                12.45093
   143   2       11.34365784181967      0.8300089976157341                10.19007
   144   2       11.34365784181967      0.8300089976157341      14.292730000000001
   145   1       11.34400452944231      13.557463551453578      3.0874199999999998
   146   1       11.34400452944231      13.557463551453578      7.1900700000000004
   147   2      11.343998982440349      6.3637120226635258                 5.06358
   148   2      11.897015663570036      5.2569020801294393                12.30396
   149   1       11.89702953107494       12.45069521143421                 10.3278
   150   1       11.89702953107494       12.45069521143421                14.43045
   151   2      11.897370671695619      9.1305344134271191                 5.06358
   152   3      11.897365124693655      1.9367828846370658      5.2105499999999996
   153   2      11.897365124693655      1.9367828846370658      2.9496899999999999
   154   2      11.897365124693655      1.9367828846370658      7.0523499999999997
   155   3      12.450373485320398      9.6838312181558983                12.45093
   156   2      12.450373485320398      9.6838312181558983                10.19007
   157   2      12.450373485320398      9.6838312181558983      14.292730000000001
   158   2      12.450395673328247      2.4900741423638837                12.30396
   159   1      12.450731266946963      4.7036135959036036      3.0874199999999998
   160   1      12.450731266946963      4.7036135959036036      7.1900700000000004
   161   2      12.450736813948925      11.897365124693655                 5.06358
   162   1      13.003745174575668      6.9169977333883796                 10.3278
   163   1      13.003745174575668      6.9169977333883796                14.43045
   164   2      13.003767362583517      14.110796411695112                12.30396
   165   2       13.00409740920027     0.27668445787714357                 5.06358
   166   3       13.00409740920027      7.4704443071701396      5.2105499999999996
   167   2       13.00409740920027      7.4704443071701396      2.9496899999999999
   168   2       13.00409740920027      7.4704443071701396      7.0523499999999997
   169   3      13.557119637331917      4.1501781161257671                12.45093
   170   2      13.557119637331917      4.1501781161257671                10.19007
   171   2      13.557119637331917      4.1501781161257671      14.292730000000001
   172   2      13.557133504836825      11.343971247430538                12.30396
   173   1       13.55746909845554      10.237266697933734      3.0874199999999998
   174   1       13.55746909845554      10.237266697933734      7.1900700000000004
   175   2      13.557463551453578      3.0435151691436815                 5.06358
   176   2      14.110477459082283      8.5771072541522244                12.30396
   177   1      14.110491326587189      1.3833446313582491                 10.3278
   178   1      14.110491326587189      1.3833446313582491                14.43045
   179   2      14.110829693706885      5.8103458804102175                 5.06358
   180   3      14.110835240708848       13.00409740920027      5.2105499999999996
   181   2      14.110835240708848       13.00409740920027      2.9496899999999999
   182   2      14.110835240708848       13.00409740920027      7.0523499999999997
