(written by ASE)

1022 atoms
3 atom types

0.0       34.09381393377118  xlo xhi
0.0       34.09381393377118  ylo yhi
0.0      61.480760591600003  zlo zhi

Masses

     1       137.3269999646734 # Ba
     2      15.998999995884349 # O
     3      47.866999987686484 # Ti

Atoms # atomic

     1   2     0.10482322184032619      20.195692223867027                12.30396
     2   1     0.10544471033193782      3.1500290498760513                 10.3278
     3   1     0.10544471033193782      3.1500290498760513                14.43045
     4   1     0.11675673720844344      30.941304320574734      3.0874199999999998
     5   1     0.11675673720844344      30.941304320574734      7.1900700000000004
     6   2     0.11675673720844346      13.894393487954648                 5.06358
     7   2     0.33812134054637433      26.499475743334383                12.30396
     8   3     0.33874282903798486      9.4538125693434054                12.45093
     9   2     0.33874282903798486      9.4538125693434054                10.19007
    10   2     0.33874282903798486      9.4538125693434054      14.292730000000001
    11   2     0.35027606368269176       7.589371673149957                 5.06358
    12   3     0.35027606368269126      24.636282505770044      5.2105499999999996
    13   2     0.35027606368269126      24.636282505770044      2.9496899999999999
    14   2     0.35027606368269126      24.636282505770044      7.0523499999999997
    15   2     0.57140190308033989      32.804502239784959                12.30396
    16   1     0.57202339157195259      15.758839065793985                 10.3278
    17   1     0.57202339157195259      15.758839065793985                14.43045
    18   1     0.58379539015693926      18.331260690965355      3.0874199999999998
    19   1     0.58379539015693926      18.331260690965355      7.1900700000000004
    20   2     0.58379539015693949       1.284349858345267                 5.06358
    21   3     0.80532151027799992      22.062622585261337                12.45093
    22   2     0.80532151027799992      22.062622585261337                10.19007
    23   2     0.80532151027799992      22.062622585261337      14.292730000000001
    24   2     0.80593480588930777      5.0182058994880006                12.30396
    25   2     0.81731471663118715       29.07314970878075                 5.06358
    26   3     0.81731471663118715      12.026238876160665      5.2105499999999996
    27   2     0.81731471663118715      12.026238876160665      2.9496899999999999
    28   2     0.81731471663118715      12.026238876160665      7.0523499999999997
    29   1      1.0386114361037426      28.367652592946335                 10.3278
    30   1      1.0386114361037426      28.367652592946335                14.43045
    31   2      1.0392329245953544      11.321989418955356                12.30396
    32   1      1.0508340431054353      5.7212170613559747      3.0874199999999998
    33   1      1.0508340431054353      5.7212170613559747      7.1900700000000004
    34   2       1.050834043105435      22.768127893976061                 5.06358
    35   2      1.2725228504210979      17.627019426640349                12.30396
    36   3      1.2731443389127093     0.58135625264937218                12.45093
    37   2      1.2731443389127093     0.58135625264937218                10.19007
    38   2      1.2731443389127093     0.58135625264937218      14.292730000000001
    39   2      1.2843533695796829      16.463106079171371                 5.06358
    40   3      1.2843533695796847       33.51001691179146      5.2105499999999996
    41   2      1.2843533695796847       33.51001691179146      2.9496899999999999
    42   2      1.2843533695796847       33.51001691179146      7.0523499999999997
    43   2      1.5058080946009529      23.930808798165064                12.30396
    44   1      1.5064249014466766      6.8863827490999503                 10.3278
    45   1      1.5064249014466766      6.8863827490999503                14.43045
    46   1      1.5178726960539308      27.204995096986767      3.0874199999999998
    47   1      1.5178726960539308      27.204995096986767      7.1900700000000004
    48   2      1.5178726960539299      10.158084264366684                 5.06358
    49   2      1.7390980204266964      30.235838805850058                12.30396
    50   3      1.7397195089183082      13.190175631859081                12.45093
    51   2      1.7397195089183082      13.190175631859081                10.19007
    52   2      1.7397195089183082      13.190175631859081      14.292730000000001
    53   2      1.7513920225281785      3.8530624495619925                 5.06358
    54   3      1.7513920225281787      20.899973282182078      5.2105499999999996
    55   2      1.7513920225281787      20.899973282182078      2.9496899999999999
    56   2      1.7513920225281787      20.899973282182078      7.0523499999999997
    57   1      1.9730094347440508      19.495205639544078                 10.3278
    58   1      1.9730094347440508      19.495205639544078                14.43045
    59   2      1.9736309232356632      2.4495424655530975                12.30396
    60   1      1.9849113490024257      14.594951467377392      3.0874199999999998
    61   1      1.9849113490024257      14.594951467377392      7.1900700000000004
    62   2      1.9849113490024266      31.641862299997477                 5.06358
    63   3      2.2062981901583218      25.798985647777016                12.45093
    64   2      2.2062981901583218      25.798985647777016                10.19007
    65   2      2.2062981901583218      25.798985647777016      14.292730000000001
    66   2      2.2069196786499341      8.7533224737860369                12.30396
    67   2      2.2184306754766725      25.336840485192788                 5.06358
    68   3      2.2184306754766734      8.2899296525727006      5.2105499999999996
    69   2      2.2184306754766734      8.2899296525727006      2.9496899999999999
    70   2      2.2184306754766734      8.2899296525727006      7.0523499999999997
    71   1      2.4395881159840664      32.104015655462007                 10.3278
    72   1      2.4395881159840664      32.104015655462007                14.43045
    73   2      2.4402096044756783      15.058352481471031                12.30396
    74   1      2.4519500019509222      1.9849078377680105      3.0874199999999998
    75   1      2.4519500019509222      1.9849078377680105      7.1900700000000004
    76   2      2.4519500019509222      19.031818670388098                 5.06358
    77   2      2.6734983598899493      21.362132489703967                12.30396
    78   3      2.6741210187930329      4.3177193151650473                12.45093
    79   2      2.6741210187930329      4.3177193151650473                10.19007
    80   2      2.6741210187930329      4.3177193151650473      14.292730000000001
    81   2      2.6854693284251692      12.726796855583409                 5.06358
    82   3      2.6854693284251701      29.773707688203494      5.2105499999999996
    83   2      2.6854693284251701      29.773707688203494      2.9496899999999999
    84   2      2.6854693284251701      29.773707688203494      7.0523499999999997
    85   2      2.9067882857156921      27.667162497388961                12.30396
    86   1       2.907409774207304      10.621499323397986                 10.3278
    87   1       2.907409774207304      10.621499323397986                14.43045
    88   1      2.9189886548994162      23.468685873398805      3.0874199999999998
    89   1      2.9189886548994162      23.468685873398805      7.1900700000000004
    90   2      2.9189886548994171      6.4217750407787175                 5.06358
    91   3      3.1406997000330463      16.926529331082978                12.45093
    92   2      3.1406997000330463      16.926529331082978                10.19007
    93   2      3.1406997000330463      16.926529331082978      14.292730000000001
    94   2      3.1413246997590742      33.974678459040405                12.30396
    95   2      3.1525044701392493     0.11676258926580391                 5.06358
    96   3      3.1525079813736658      17.163664058594115      5.2105499999999996
    97   2      3.1525079813736658      17.163664058594115      2.9496899999999999
    98   2      3.1525079813736658      17.163664058594115      7.0523499999999997
    99   1      3.3739849442129031      23.230318702607697                 10.3278
   100   1      3.3739849442129031      23.230318702607697                14.43045
   101   2      3.3746111143504023      6.1858961647769961                12.30396
   102   1      3.3860273078479119      10.858642243789427      3.0874199999999998
   103   1      3.3860273078479119      10.858642243789427      7.1900700000000004
   104   2      3.3860273078479137      27.905553076409511                 5.06358
   105   3      3.6072748700386459      29.535348710292688                12.45093
   106   2      3.6072748700386459      29.535348710292688                10.19007
   107   2      3.6072748700386459      29.535348710292688      14.292730000000001
   108   2      3.6078963585302577      12.489685536301712                12.30396
   109   2      3.6195466343221598      21.600531261604822                 5.06358
   110   3      3.6195466343221603      4.5536204289847362      5.2105499999999996
   111   2      3.6195466343221603      4.5536204289847362      2.9496899999999999
   112   2      3.6195466343221603      4.5536204289847362      7.0523499999999997
   113   2      3.8411897955904171      18.794706180694931                12.30396
   114   1      3.8418112840820289      1.7490430067039522                 10.3278
   115   1      3.8418112840820289      1.7490430067039522                14.43045
   116   1      3.8530659607964077      32.342420279420224      3.0874199999999998
   117   1      3.8530659607964077      32.342420279420224      7.1900700000000004
   118   2      3.8530659607964086      15.295509446800136                 5.06358
   119   2       4.074475039770272      25.098495552219642                12.30396
   120   3      4.0750965282618834      8.0528323782286666                12.45093
   121   2      4.0750965282618834      8.0528323782286666                10.19007
   122   2      4.0750965282618834      8.0528323782286666      14.292730000000001
   123   2      4.0865852872706556      8.9904876319954425                 5.06358
   124   3      4.0865852872706556      26.037398464615531      5.2105499999999996
   125   2      4.0865852872706556      26.037398464615531      2.9496899999999999
   126   2      4.0865852872706556      26.037398464615531      7.0523499999999997
   127   2      4.3077649655960153       31.40352555990464                12.30396
   128   1      4.3083864540876267      14.357862385913661                 10.3278
   129   1      4.3083864540876267      14.357862385913661                14.43045
   130   1      4.3201046137449035      19.732376649810842      3.0874199999999998
   131   1      4.3201046137449035      19.732376649810842      7.1900700000000004
   132   2      4.3201046137449035      2.6854658171907535                 5.06358
   133   3      4.5416752095018982        20.6616423941466                12.45093
   134   2      4.5416752095018982        20.6616423941466                10.19007
   135   2      4.5416752095018982        20.6616423941466      14.292730000000001
   136   2      4.5422978684049822      3.6172292196076774                12.30396
   137   2      4.5536239402191514      30.474265667626238                 5.06358
   138   3      4.5536239402191523      13.427354835006152      5.2105499999999996
   139   2      4.5536239402191523      13.427354835006152      2.9496899999999999
   140   2      4.5536239402191523      13.427354835006152      7.0523499999999997
   141   1      4.7749651353276414      26.966672401831595                 10.3278
   142   1      4.7749651353276414      26.966672401831595                14.43045
   143   2      4.7755866238192537      9.9210092278406172                12.30396
   144   1      4.7871432666933993      7.1223330202014612      3.0874199999999998
   145   1      4.7871432666933993      7.1223330202014612      7.1900700000000004
   146   2      4.7871432666933993      24.169243852821548                 5.06358
   147   2       5.008876549644997      16.226039235525608                12.30396
   148   3      5.0095015493710218      33.274188363483034                12.45093
   149   2      5.0095015493710218      33.274188363483034                10.19007
   150   2      5.0095015493710218      33.274188363483034      14.292730000000001
   151   2      5.0206625931676472      17.864222038016859                 5.06358
   152   3      5.0206590819332311     0.81732056868854708      5.2105499999999996
   153   2      5.0206590819332311     0.81732056868854708      2.9496899999999999
   154   2      5.0206590819332311     0.81732056868854708      7.0523499999999997
   155   2      5.2421617938248533      22.529828607050323                12.30396
   156   1      5.2427879639623516      5.4854060692196267                 10.3278
   157   1      5.2427879639623516      5.4854060692196267                14.43045
   158   1      5.2541819196418951      28.606111055832255      3.0874199999999998
   159   1      5.2541819196418951      28.606111055832255      7.1900700000000004
   160   2      5.2541819196418951      11.559200223212171                 5.06358
   161   2        5.47545523088501      28.834849251443543                12.30396
   162   3      5.4760767193766231      11.789186077452566                12.45093
   163   2      5.4760767193766231      11.789186077452566                10.19007
   164   2      5.4760767193766231      11.789186077452566      14.292730000000001
   165   2      5.4877012461161421       5.254178408407479                 5.06358
   166   3       5.487701246116143      22.301089241027565      5.2105499999999996
   167   2       5.487701246116143      22.301089241027565      2.9496899999999999
   168   2       5.487701246116143      22.301089241027565      7.0523499999999997
   169   1      5.7093666452023655       18.09421608513756                 10.3278
   170   1      5.7093666452023655       18.09421608513756                14.43045
   171   2      5.7099881336939777      1.0485529111465826                12.30396
   172   1        5.72122057259039      15.996067426222879      3.0874199999999998
   173   1        5.72122057259039      15.996067426222879      7.1900700000000004
   174   2      5.7212205725903891      33.042978258842965                 5.06358
   175   3      5.9426518893822227      24.398005456662275                12.45093
   176   2      5.9426518893822227      24.398005456662275                10.19007
   177   2      5.9426518893822227      24.398005456662275      14.292730000000001
   178   2      5.9432733778738331      7.3523422826712981                12.30396
   179   2       5.954739899064637      26.737956444038275                 5.06358
   180   3      5.9547398990646387      9.6910456114181862      5.2105499999999996
   181   2      5.9547398990646387      9.6910456114181862      2.9496899999999999
   182   2      5.9547398990646387      9.6910456114181862      7.0523499999999997
   183   1      6.1759418152079633      30.703035464347266                 10.3278
   184   1      6.1759418152079633      30.703035464347266                14.43045
   185   2      6.1765633036995773      13.657372290356291                12.30396
   186   1      6.1882592255388857      3.3860237966134972      3.0874199999999998
   187   1      6.1882592255388857      3.3860237966134972      7.1900700000000004
   188   2      6.1882592255388866      20.432934629233586                 5.06358
   189   2      6.4098614224056236      19.961155809823644                12.30396
   190   3       6.410474718016931      2.9167391240503076                12.45093
   191   2       6.410474718016931      2.9167391240503076                10.19007
   192   2       6.410474718016931      2.9167391240503076      14.292730000000001
   193   2      6.4217785520131336      14.127912814428896                 5.06358
   194   3      6.4217785520131327      31.174823647048981      5.2105499999999996
   195   2      6.4217785520131327      31.174823647048981      2.9496899999999999
   196   2      6.4217785520131327      31.174823647048981      7.0523499999999997
   197   2      6.6431419849395912      26.266182306274224                12.30396
   198   1      6.6437634734312025      9.2205191322832469                 10.3278
   199   1      6.6437634734312025      9.2205191322832469                14.43045
   200   1      6.6552978784873806      24.869801832244292      3.0874199999999998
   201   1      6.6552978784873806      24.869801832244292      7.1900700000000004
   202   2      6.6552978784873824      7.8228909996242049                 5.06358
   203   3      6.8770533992569467      15.525549139968241                12.45093
   204   2      6.8770533992569467      15.525549139968241                10.19007
   205   2      6.8770533992569467      15.525549139968241      14.292730000000001
   206   2      6.8776783989829733      32.573698267925664                12.30396
   207   2      6.8888136937272133      1.5178785481112904                 5.06358
   208   3      6.8888172049616303      18.564780017439602      5.2105499999999996
   209   2      6.8888172049616303      18.564780017439602      2.9496899999999999
   210   2      6.8888172049616303      18.564780017439602      7.0523499999999997
   211   1       7.110348006728576      21.829342022727371                 10.3278
   212   1       7.110348006728576      21.829342022727371                14.43045
   213   2      7.1109648135743013      4.7849159736622573                12.30396
   214   1      7.1223365314358764      12.259758202634915      3.0874199999999998
   215   1      7.1223365314358764      12.259758202634915      7.1900700000000004
   216   2      7.1223365314358764      29.306669035254998                 5.06358
   217   3      7.3436414437887363      28.134362667120591                12.45093
   218   2      7.3436414437887363      28.134362667120591                10.19007
   219   2      7.3436414437887363      28.134362667120591      14.292730000000001
   220   2      7.3442629322803477      11.088699493129612                12.30396
   221   2      7.3558558579101243      23.001647220450309                 5.06358
   222   3      7.3558558579101252      5.9547363878302226      5.2105499999999996
   223   2      7.3558558579101252      5.9547363878302226      2.9496899999999999
   224   2      7.3558558579101252      5.9547363878302226      7.0523499999999997
   225   2      7.5775434948143161       17.39372598958019                12.30396
   226   1      7.5781649833059275     0.34806281558921276                 10.3278
   227   1      7.5781649833059275     0.34806281558921276                14.43045
   228   1      7.5893751843843722      33.743536238265705      3.0874199999999998
   229   1      7.5893751843843722      33.743536238265705      7.1900700000000004
   230   2      7.5893751843843731      16.696625405645623                 5.06358
   231   2      7.8108381022859472       23.69751887233932                12.30396
   232   3      7.8114595907775586      6.6518556983483439                12.45093
   233   2      7.8114595907775586      6.6518556983483439                10.19007
   234   2      7.8114595907775586      6.6518556983483439      14.292730000000001
   235   2      7.8228945108586201       10.39160359084093                 5.06358
   236   3      7.8228945108586183      27.438514423461019      5.2105499999999996
   237   2      7.8228945108586183      27.438514423461019      2.9496899999999999
   238   2      7.8228945108586183      27.438514423461019      7.0523499999999997
   239   2      8.0441280281116896      30.002548880024314                12.30396
   240   1      8.0447495166033018      12.956885706033336                 10.3278
   241   1      8.0447495166033018      12.956885706033336                14.43045
   242   1      8.0564138373328689      21.133492608656329      3.0874199999999998
   243   1      8.0564138373328689      21.133492608656329      7.1900700000000004
   244   2      8.0564138373328689      4.0865817760362404                 5.06358
   245   3      8.2780382720175734      19.260665714266278                12.45093
   246   2      8.2780382720175734      19.260665714266278                10.19007
   247   2      8.2780382720175734      19.260665714266278      14.292730000000001
   248   2      8.2786609309206582      2.2162525397273543                12.30396
   249   2      8.2899331638071168      31.875381626471725                 5.06358
   250   3      8.2899331638071168       14.82847079385164      5.2105499999999996
   251   2      8.2899331638071168       14.82847079385164      2.9496899999999999
   252   2      8.2899331638071168       14.82847079385164      7.0523499999999997
   253   1      8.5113281978433157      25.565695721951272                 10.3278
   254   1      8.5113281978433157      25.565695721951272                14.43045
   255   2       8.511949686334928      8.5200325479602927                12.30396
   256   1      8.5234524902813629      8.5234489790469485      3.0874199999999998
   257   1      8.5234524902813629      8.5234489790469485      7.1900700000000004
   258   2      8.5234524902813629      25.570359811667036                 5.06358
   259   3      8.7446134420231729      31.869485093475983                12.45093
   260   2      8.7446134420231729      31.869485093475983                10.19007
   261   2      8.7446134420231729      31.869485093475983      14.292730000000001
   262   2      8.7452396121606721      14.825062555645287                12.30396
   263   2      8.7569718167556125      19.265337996862346                 5.06358
   264   3      8.7569683055211964      2.2184365275340343      5.2105499999999996
   265   2      8.7569683055211964      2.2184365275340343      2.9496899999999999
   266   2      8.7569683055211964      2.2184365275340343      7.0523499999999997
   267   2      8.9785283675749419      21.128842563878226                12.30396
   268   1      8.9791510264780268       4.084429389339304                 10.3278
   269   1      8.9791510264780268       4.084429389339304                14.43045
   270   1      8.9904911432298604      30.007227014677742      3.0874199999999998
   271   1      8.9904911432298604      30.007227014677742      7.1900700000000004
   272   2      8.9904911432298604      12.960316182057658                 5.06358
   273   2      9.2118182934006878      27.433872571563221                12.30396
   274   3      9.2124397818922983      10.388209397572242                12.45093
   275   2      9.2124397818922983      10.388209397572242                10.19007
   276   2      9.2124397818922983      10.388209397572242      14.292730000000001
   277   2      9.2240104697041065      6.6552943672529663                 5.06358
   278   3      9.2240104697041065      23.702205199873053      5.2105499999999996
   279   2      9.2240104697041065      23.702205199873053      2.9496899999999999
   280   2      9.2240104697041065      23.702205199873053      7.0523499999999997
   281   2      9.4451035375805414      33.737661943087936                12.30396
   282   1      9.4457297077180407      16.693239405257238                 10.3278
   283   1      9.4457297077180407      16.693239405257238                14.43045
   284   1      9.4575297961783544      17.397183385068367      3.0874199999999998
   285   1      9.4575297961783544      17.397183385068367      7.1900700000000004
   286   2      9.4575262849439401     0.35028191574005191                 5.06358
   287   3      9.6790149518978978      22.997028776781953                12.45093
   288   2      9.6790149518978978      22.997028776781953                10.19007
   289   2      9.6790149518978978      22.997028776781953      14.292730000000001
   290   2      9.6796364403895083      5.9513656027909745                12.30396
   291   2      9.6910491226526023      28.139072402883762                 5.06358
   292   3      9.6910491226526041      11.092161570263674      5.2105499999999996
   293   2      9.6910491226526041      11.092161570263674      2.9496899999999999
   294   2      9.6910491226526041      11.092161570263674      7.0523499999999997
   295   1      9.9123048777236402      29.302058784466944                 10.3278
   296   1      9.9123048777236402      29.302058784466944                14.43045
   297   2      9.9129263662152507      12.256395610475968                12.30396
   298   1      9.9245684491268502      4.7871397554589841      3.0874199999999998
   299   1      9.9245684491268502      4.7871397554589841      7.1900700000000004
   300   2      9.9245684491268502      21.834050588079069                 5.06358
   301   3      10.145590121903496       1.512026490751484                12.45093
   302   2      10.145590121903496       1.512026490751484                10.19007
   303   2      10.145590121903496       1.512026490751484      14.292730000000001
   304   2       10.14621512162952      18.560175618708907                12.30396
   305   2      10.158087775601098      15.529028773274382                 5.06358
   306   3        10.1580877756011      32.575939605894469      5.2105499999999996
   307   2        10.1580877756011      32.575939605894469      2.9496899999999999
   308   2        10.1580877756011      32.575939605894469      7.0523499999999997
   309   2      10.379505047455266      24.865205626393905                12.30396
   310   1      10.380126535946879      7.8195424524029233                 10.3278
   311   1      10.380126535946879      7.8195424524029233                14.43045
   312   1      10.391607102075346      26.270917791089779      3.0874199999999998
   313   1      10.391607102075346      26.270917791089779      7.1900700000000004
   314   2      10.391607102075346      9.2240069584696922                 5.06358
   315   2      10.612793802869536      31.168985634626843                12.30396
   316   3      10.613416461772621      14.124572460087917                12.45093
   317   2      10.613416461772621      14.124572460087917                10.19007
   318   2      10.613416461772621      14.124572460087917      14.292730000000001
   319   2      10.625122917315178      2.9189945069567771                 5.06358
   320   3      10.625126428549594       19.96589597628509      5.2105499999999996
   321   2      10.625126428549594       19.96589597628509      2.9496899999999999
   322   2      10.625126428549594       19.96589597628509      7.0523499999999997
   323   2      10.846080217460866      3.3802033403634337                12.30396
   324   1      10.846705217186891      20.428352468320856                 10.3278
   325   1      10.846705217186891      20.428352468320856                14.43045
   326   1      10.858645755023842        13.6608741614804      3.0874199999999998
   327   1      10.858645755023842        13.6608741614804      7.1900700000000004
   328   2      10.858645755023844      30.707784994100486                 5.06358
   329   3      11.079995143012637      26.733382476005847                12.45093
   330   2      11.079995143012637      26.733382476005847                10.19007
   331   2      11.079995143012637      26.733382476005847      14.292730000000001
   332   2      11.080616631504247      9.6877193020148731                12.30396
   333   2       11.09216508149809      24.402763179295796                 5.06358
   334   3       11.09216508149809        7.35585234667571      5.2105499999999996
   335   2       11.09216508149809        7.35585234667571      2.9496899999999999
   336   2       11.09216508149809        7.35585234667571      7.0523499999999997
   337   1       11.31328038719249      33.037171847530566                 10.3278
   338   1       11.31328038719249      33.037171847530566                14.43045
   339   2      11.313906557329991      15.992749309699866                12.30396
   340   1      11.325680896737921      1.0508398951627949      3.0874199999999998
   341   1      11.325680896737921      1.0508398951627949      7.1900700000000004
   342   2      11.325684407972336      18.097741364491107                 5.06358
   343   3      11.546570313018234       5.248380189975383                12.45093
   344   2      11.546570313018234       5.248380189975383                10.19007
   345   2      11.546570313018234       5.248380189975383      14.292730000000001
   346   2      11.547191801509843      22.296538681224582                12.30396
   347   2      11.559203734446585      11.792719549686417                 5.06358
   348   3      11.559203734446585      28.839630382306506      5.2105499999999996
   349   2      11.559203734446585      28.839630382306506      2.9496899999999999
   350   2      11.559203734446585      28.839630382306506      7.0523499999999997
   351   2      11.780481727335591      28.601568688909573                12.30396
   352   1      11.781103215827201      11.555905514918599                 10.3278
   353   1      11.781103215827201      11.555905514918599                14.43045
   354   1      11.792723060920833      22.534608567501813      3.0874199999999998
   355   1      11.792723060920833      22.534608567501813      7.1900700000000004
   356   2      11.792723060920833      5.4876977348817277                 5.06358
   357   2       12.01377633480722     0.81153990642852991                12.30396