(written by ASE)

1452 atoms
3 atom types

0.0      48.050527278882271  xlo xhi
0.0      48.050527278882271  ylo yhi
0.0      61.480760591600003  zlo zhi

Masses

     1       137.3269999646734 # Ba
     2      15.998999995884349 # O
     3      47.866999987686484 # Ti

Atoms # atomic

     1   1    0.058271352303769355      46.639695957636782                 10.3278
     2   1    0.058271352303769355      46.639695957636782                14.43045
     3   3    0.082845340247292371      1.4083707842039717      5.2105499999999996
     4   2    0.082845340247292371      1.4083707842039717      2.9496899999999999
     5   2    0.082845340247292371      1.4083707842039717      7.0523499999999997
     6   3     0.22382251639219705      43.822934458313675                12.45093
     7   2     0.22382251639219705      43.822934458313675                10.19007
     8   2     0.22382251639219705      43.822934458313675      14.292730000000001
     9   1     0.24853685119667562      4.2251264703434908      3.0874199999999998
    10   1     0.24853685119667562      4.2251264703434908      7.1900700000000004
    11   1     0.38936620638744396      41.006166315352175                 10.3278
    12   1     0.38936620638744396      41.006166315352175                14.43045
    13   3      0.4142283621460589       7.041882156483009      5.2105499999999996
    14   2      0.4142283621460589       7.041882156483009      2.9496899999999999
    15   2      0.4142283621460589       7.041882156483009      7.0523499999999997
    16   3     0.55491737047587519      38.189404816029068                12.45093
    17   2     0.55491737047587519      38.189404816029068                10.19007
    18   2     0.55491737047587519      38.189404816029068      14.292730000000001
    19   1     0.57991987309544235      9.8586378426225263      3.0874199999999998
    20   1     0.57991987309544235      9.8586378426225263      7.1900700000000004
    21   1     0.72046853456430648      35.372643316705961                 10.3278
    22   1     0.72046853456430648      35.372643316705961                14.43045
    23   3     0.74561138404482596      12.675393528762047      5.2105499999999996
    24   2     0.74561138404482596      12.675393528762047      2.9496899999999999
    25   2     0.74561138404482596      12.675393528762047      7.0523499999999997
    26   3     0.88601222455955342      32.555875173744461                12.45093
    27   2     0.88601222455955342      32.555875173744461                10.19007
    28   2     0.88601222455955342      32.555875173744461      14.292730000000001
    29   1     0.91130289499420913      15.492149214901564      3.0874199999999998
    30   1     0.91130289499420913      15.492149214901564      7.1900700000000004
    31   1      1.0515633886479805      29.739113674421354                 10.3278
    32   1      1.0515633886479805      29.739113674421354                14.43045
    33   3      1.0769944059435919      18.308904901041085      5.2105499999999996
    34   2      1.0769944059435919      18.308904901041085      2.9496899999999999
    35   2      1.0769944059435919      18.308904901041085      7.0523499999999997
    36   3        1.21711455273641      26.922352175098247                12.45093
    37   2        1.21711455273641      26.922352175098247                10.19007
    38   2        1.21711455273641      26.922352175098247      14.292730000000001
    39   1       1.242685916892976      21.125660587180601      3.0874199999999998
    40   1       1.242685916892976      21.125660587180601      7.1900700000000004
    41   1      1.3826582427316569       24.10558403213675                 10.3278
    42   1      1.3826582427316569       24.10558403213675                14.43045
    43   2       1.383883994014298    0.080320757659738909                12.30396
    44   3      1.4083774278423582       23.94241627332012      5.2105499999999996
    45   2      1.4083774278423582       23.94241627332012      2.9496899999999999
    46   2      1.4083774278423582       23.94241627332012      7.0523499999999997
    47   3      1.5482094068200865       21.28882253281364                12.45093
    48   2      1.5482094068200865       21.28882253281364                10.19007
    49   2      1.5482094068200865       21.28882253281364      14.292730000000001
    50   2      1.5740689387917435      2.7339028717990397                 5.06358
    51   1      1.5740689387917428      26.759171959459639      3.0874199999999998
    52   1      1.5740689387917428      26.759171959459639      7.1900700000000004
    53   1      1.7137464531769404      18.472061863945331                 10.3278
    54   1      1.7137464531769404      18.472061863945331                14.43045
    55   3      1.7397604497411256      29.575927645599158      5.2105499999999996
    56   2      1.7397604497411256      29.575927645599158      2.9496899999999999
    57   2      1.7397604497411256      29.575927645599158      7.0523499999999997
    58   3      1.8792976172653735      15.655300364622223                12.45093
    59   2      1.8792976172653735      15.655300364622223                10.19007
    60   2      1.8792976172653735      15.655300364622223      14.292730000000001
    61   1      1.9054519606905085      32.392683331738681      3.0874199999999998
    62   1      1.9054519606905085      32.392683331738681      7.1900700000000004
    63   1      2.0448487813538025      12.838538865299116                 10.3278
    64   1      2.0448487813538025      12.838538865299116                14.43045
    65   3        2.07114347163989      35.209439017878196      5.2105499999999996
    66   2        2.07114347163989      35.209439017878196      2.9496899999999999
    67   2        2.07114347163989      35.209439017878196      7.0523499999999997
    68   3       2.210392471349047      10.021770722337617                12.45093
    69   2       2.210392471349047      10.021770722337617                10.19007
    70   2       2.210392471349047      10.021770722337617      14.292730000000001
    71   1      2.2368349825892766      38.026194704017712      3.0874199999999998
    72   1      2.2368349825892766      38.026194704017712      7.1900700000000004
    73   1      2.3783943075479619       7.205006731650113                 10.3278
    74   1      2.3783943075479619       7.205006731650113                14.43045
    75   3      2.4025264935386592      40.842950390157235      5.2105499999999996
    76   2      2.4025264935386592      40.842950390157235      2.9496899999999999
    77   2      2.4025264935386592      40.842950390157235      7.0523499999999997
    78   3       2.543945471636393      4.3882452323270051                12.45093
    79   2       2.543945471636393      4.3882452323270051                10.19007
    80   2       2.543945471636393      4.3882452323270051      14.292730000000001
    81   1      2.5682180044880409       43.65970607629675      3.0874199999999998
    82   1      2.5682180044880409       43.65970607629675      7.1900700000000004
    83   1       2.709489161631637      1.5714770893655086                 10.3278
    84   1       2.709489161631637      1.5714770893655086                14.43045
    85   3      2.7339095154374249      46.476461762436273      5.2105499999999996
    86   2      2.7339095154374249      46.476461762436273      2.9496899999999999
    87   2      2.7339095154374249      46.476461762436273      7.0523499999999997
    88   3      2.8750394952652663      46.805239647632021                12.45093
    89   2      2.8750394952652663      46.805239647632021                10.19007
    90   2      2.8750394952652663      46.805239647632021      14.292730000000001
    91   1      2.8995943827484227      1.2426867473477754      3.0874199999999998
    92   1      2.8995943827484227      1.2426867473477754      7.1900700000000004
    93   1      3.0405840157153095      43.988485622402102                 10.3278
    94   1      3.0405840157153095      43.988485622402102                14.43045
    95   3      3.0652925373361941      4.0594349593941068      5.2105499999999996
    96   2      3.0652925373361941      4.0594349593941068      2.9496899999999999
    97   2      3.0652925373361941      4.0594349593941068      7.0523499999999997
    98   3      3.2061277057105526      41.171717479440602                12.45093
    99   2      3.2061277057105526      41.171717479440602                10.19007
   100   2      3.2061277057105526      41.171717479440602      14.292730000000001
   101   1      3.2309840482855772      6.8761906455336259      3.0874199999999998
   102   1      3.2309840482855772      6.8761906455336259      7.1900700000000004
   103   1      3.3716788697989841      38.354955980117495                 10.3278
   104   1      3.3716788697989841      38.354955980117495                14.43045
   105   3       3.396675559234962       9.692946331673145      5.2105499999999996
   106   2       3.396675559234962       9.692946331673145      2.9496899999999999
   107   2       3.396675559234962       9.692946331673145      7.0523499999999997
   108   3      3.5372300338874152      35.538194480794388                12.45093
   109   2      3.5372300338874152      35.538194480794388                10.19007
   110   2      3.5372300338874152      35.538194480794388      14.292730000000001
   111   1      3.5623670701843446      12.509702017812662      3.0874199999999998
   112   1      3.5623670701843446      12.509702017812662      7.1900700000000004
   113   1      3.7027737238826561      32.721426337832888                 10.3278
   114   1      3.7027737238826561      32.721426337832888                14.43045
   115   3      3.7280585811337272      15.326457703952181      5.2105499999999996
   116   2      3.7280585811337272      15.326457703952181      2.9496899999999999
   117   2      3.7280585811337272      15.326457703952181      7.0523499999999997
   118   3      3.8683248879710912      29.904664838509785                12.45093
   119   2      3.8683248879710912      29.904664838509785                10.19007
   120   2      3.8683248879710912      29.904664838509785      14.292730000000001
   121   1      3.8937500920831112      18.143213390091699      3.0874199999999998
   122   1      3.8937500920831112      18.143213390091699      7.1900700000000004
   123   1      4.0338760520595205      27.087903339186674                 10.3278
   124   1      4.0338760520595205      27.087903339186674                14.43045
   125   3       4.059441603032492      20.959969076231218      5.2105499999999996
   126   2       4.059441603032492      20.959969076231218      2.9496899999999999
   127   2       4.059441603032492      20.959969076231218      7.0523499999999997
   128   3      4.1994197420547641      24.271135196225178                12.45093
   129   2      4.1994197420547641      24.271135196225178                10.19007
   130   2      4.1994197420547641      24.271135196225178      14.292730000000001
   131   1      4.2251331139818777      23.776724762370737      3.0874199999999998
   132   1      4.2251331139818777      23.776724762370737      7.1900700000000004
   133   1      4.3649709061431956      21.454373696902071                 10.3278
   134   1      4.3649709061431956      21.454373696902071                14.43045
   135   3      4.3908246249312617      26.593480448510256      5.2105499999999996
   136   2      4.3908246249312617      26.593480448510256      2.9496899999999999
   137   2      4.3908246249312617      26.593480448510256      7.0523499999999997
   138   3      4.5305145961384392      18.637605553940574                12.45093
   139   2      4.5305145961384392      18.637605553940574                10.19007
   140   2      4.5305145961384392      18.637605553940574      14.292730000000001
   141   1      4.5565161358806447      29.410236134649775      3.0874199999999998
   142   1      4.5565161358806447      29.410236134649775      7.1900700000000004
   143   1      4.6960657602268689      15.820844054617467                 10.3278
   144   1      4.6960657602268689      15.820844054617467                14.43045
   145   3      4.7222076468300243      32.226991820789294      5.2105499999999996
   146   2      4.7222076468300243      32.226991820789294      2.9496899999999999
   147   2      4.7222076468300243      32.226991820789294      7.0523499999999997
   148   3      4.8616169243153005      13.004082555294357                12.45093
   149   2      4.8616169243153005      13.004082555294357                10.19007
   150   2      4.8616169243153005      13.004082555294357      14.292730000000001
   151   1      4.8878991577794109      35.043747506928817      3.0874199999999998
   152   1      4.8878991577794109      35.043747506928817      7.1900700000000004
   153   1      5.0296046427826395      10.187319395061653                 10.3278
   154   1      5.0296046427826395      10.187319395061653                14.43045
   155   3      5.0535906687287957      37.860503193068332      5.2105499999999996
   156   2      5.0535906687287957      37.860503193068332      2.9496899999999999
   157   2      5.0535906687287957      37.860503193068332      7.0523499999999997
   158   3      5.1951558068710701      7.3705578957385454                12.45093
   159   2      5.1951558068710701      7.3705578957385454                10.19007
   160   2      5.1951558068710701      7.3705578957385454      14.292730000000001
   161   1      5.2192821796781752      40.677258879207848      3.0874199999999998
   162   1      5.2192821796781752      40.677258879207848      7.1900700000000004
   163   1      5.3607069709595017      4.5537963964154358                 10.3278
   164   1      5.3607069709595017      4.5537963964154358                14.43045
   165   3      5.3849736906275618      43.494014565347371      5.2105499999999996
   166   2      5.3849736906275618      43.494014565347371      2.9496899999999999
   167   2      5.3849736906275618      43.494014565347371      7.0523499999999997
   168   3      5.5262506609547453      1.7370282534539392                12.45093
   169   2      5.5262506609547453      1.7370282534539392                10.19007
   170   2      5.5262506609547453      1.7370282534539392      14.292730000000001
   171   1      5.5506652015769431      46.310770251486886      3.0874199999999998
   172   1      5.5506652015769431      46.310770251486886      7.1900700000000004
   173   1       5.691800994588375      46.970790811720455                 10.3278
   174   1       5.691800994588375      46.970790811720455                14.43045
   175   3      5.7163500688879409      1.0769952363983917      5.2105499999999996
   176   2      5.7163500688879409      1.0769952363983917      2.9496899999999999
   177   2      5.7163500688879409      1.0769952363983917      7.0523499999999997
   178   3      5.8573521586768029      44.154029312397341                12.45093
   179   2      5.8573521586768029      44.154029312397341                10.19007
   180   2      5.8573521586768029      44.154029312397341      14.292730000000001
   181   1      5.8820415798373249      3.8937509225379103      3.0874199999999998
   182   1      5.8820415798373249      3.8937509225379103      7.1900700000000004
   183   1      6.0228958486720492      41.337261169435848                 10.3278
   184   1      6.0228958486720492      41.337261169435848                14.43045
   185   3      6.0477397344250967      6.7104991345842429      5.2105499999999996
   186   2      6.0477397344250967      6.7104991345842429      2.9496899999999999
   187   2      6.0477397344250967      6.7104991345842429      7.0523499999999997
   188   3      6.1884470127604816      38.520499670112741                12.45093
   189   2      6.1884470127604816      38.520499670112741                10.19007
   190   2      6.1884470127604816      38.520499670112741      14.292730000000001
   191   1      6.2134312453744798      9.5272548207237602      3.0874199999999998
   192   1      6.2134312453744798      9.5272548207237602      7.1900700000000004
   193   1      6.3539981768489096      35.703738170789634                 10.3278
   194   1      6.3539981768489096      35.703738170789634                14.43045
   195   3      6.3791227563238628      12.344010506863279      5.2105499999999996
   196   2      6.3791227563238628      12.344010506863279      2.9496899999999999
   197   2      6.3791227563238628      12.344010506863279      7.0523499999999997
   198   3      6.5195418668441532      32.886970027828134                12.45093
   199   2      6.5195418668441532      32.886970027828134                10.19007
   200   2      6.5195418668441532      32.886970027828134      14.292730000000001
   201   1      6.5448142672732468      15.160766193002798      3.0874199999999998
   202   1      6.5448142672732468      15.160766193002798      7.1900700000000004
   203   1      6.6850930309325873      30.070208528505031                 10.3278
   204   1      6.6850930309325873      30.070208528505031                14.43045
   205   3      6.7105057782226281      17.977521879142316      5.2105499999999996
   206   2      6.7105057782226281      17.977521879142316      2.9496899999999999
   207   2      6.7105057782226281      17.977521879142316      7.0523499999999997
   208   3      6.8506300772894422      27.253447859636719                12.45093
   209   2      6.8506300772894422      27.253447859636719                10.19007
   210   2      6.8506300772894422      27.253447859636719      14.292730000000001
   211   1      6.8761972891720138      20.794277565281835      3.0874199999999998
   212   1      6.8761972891720138      20.794277565281835      7.1900700000000004
   213   1      7.0161812413778728      24.436686360313608                 10.3278
   214   1      7.0161812413778728      24.436686360313608                14.43045
   215   3       7.041888800121396      23.611033251421357      5.2105499999999996
   216   2       7.041888800121396      23.611033251421357      2.9496899999999999
   217   2       7.041888800121396      23.611033251421357      7.0523499999999997
   218   3      7.1817324054663034      21.619924860990505                12.45093
   219   2      7.1817324054663034      21.619924860990505                10.19007
   220   2      7.1817324054663034      21.619924860990505      14.292730000000001
   221   1      7.2075803110707799      26.427788937560873      3.0874199999999998
   222   1      7.2075803110707799      26.427788937560873      7.1900700000000004
   223   1      7.3472760954615461      18.803156718029005                 10.3278
   224   1      7.3472760954615461      18.803156718029005                14.43045
   225   3      7.3732718220201603      29.244544623700392      5.2105499999999996
   226   2      7.3732718220201603      29.244544623700392      2.9496899999999999
   227   2      7.3732718220201603      29.244544623700392      7.0523499999999997
   228   3      7.5128272595499777      15.986395218705898                12.45093
   229   2      7.5128272595499777      15.986395218705898                10.19007
   230   2      7.5128272595499777      15.986395218705898      14.292730000000001
   231   1      7.5389633329695469      32.061300309839908      3.0874199999999998
   232   1      7.5389633329695469      32.061300309839908      7.1900700000000004
   233   1      7.6783734409096187      13.172077747854885                 10.3278
   234   1      7.6783734409096187      13.172077747854885                14.43045
   235   3        7.70465484391893       34.87805599597943      5.2105499999999996
   236   2        7.70465484391893       34.87805599597943      2.9496899999999999
   237   2        7.70465484391893       34.87805599597943      7.0523499999999997
   238   3      7.8439246049980476      10.355316248531777                12.45093
   239   2      7.8439246049980476      10.355316248531777                10.19007
   240   2      7.8439246049980476      10.355316248531777      14.292730000000001
   241   1      7.8703463548683095      37.694811682118946      3.0874199999999998
   242   1      7.8703463548683095      37.694811682118946      7.1900700000000004
   243   1      8.0119239498325658      7.5361015857337881                 10.3278
   244   1      8.0119239498325658      7.5361015857337881                14.43045
   245   3      8.0360378658176987      40.511567368258468      5.2105499999999996
   246   2      8.0360378658176987      40.511567368258468      2.9496899999999999
   247   2      8.0360378658176987      40.511567368258468      7.0523499999999997
   248   3      8.1774751139209982      4.7193400864106794                12.45093
   249   2      8.1774751139209982      4.7193400864106794                10.19007
   250   2      8.1774751139209982      4.7193400864106794      14.292730000000001
   251   1      8.2017293767670765      43.328323054397984      3.0874199999999998
   252   1      8.2017293767670765      43.328323054397984      7.1900700000000004
   253   1       8.343018803916241      1.9025719434491832                 10.3278
   254   1       8.343018803916241      1.9025719434491832                14.43045
   255   3      8.3674208877164595        46.1450787405375      5.2105499999999996
   256   2      8.3674208877164595        46.1450787405375      2.9496899999999999
   257   2      8.3674208877164595        46.1450787405375      7.0523499999999997
   258   3      8.5085624939114837       47.13634197580889                12.45093
   259   2      8.5085624939114837       47.13634197580889                10.19007
   260   2      8.5085624939114837       47.13634197580889      14.292730000000001
   261   1        8.53310575502746     0.91130372544900862      3.0874199999999998
   262   1        8.53310575502746     0.91130372544900862      7.1900700000000004
   263   1       8.674113657999909      44.319580476485775                 10.3278
   264   1       8.674113657999909      44.319580476485775                14.43045
   265   3      8.6987972659768449      3.7280594115885273      5.2105499999999996
   266   2      8.6987972659768449      3.7280594115885273      2.9496899999999999
   267   2      8.6987972659768449      3.7280594115885273      7.0523499999999997
   268   3      8.8396573479951588      41.502812333524282                12.45093
   269   2      8.8396573479951588      41.502812333524282                10.19007
   270   2      8.8396573479951588      41.502812333524282      14.292730000000001
   271   1      8.8644887769262262       6.544815097728045      3.0874199999999998
   272   1      8.8644887769262262       6.544815097728045      7.1900700000000004
   273   1      9.0052085120835876      38.686050834201176                 10.3278
   274   1      9.0052085120835876      38.686050834201176                14.43045
   275   3      9.0301869315139989      9.3615633097743771      5.2105499999999996
   276   2      9.0301869315139989      9.3615633097743771      2.9496899999999999
   277   2      9.0301869315139989      9.3615633097743771      7.0523499999999997
   278   3      9.1707596761720218      35.869289334878061                12.45093
   279   2      9.1707596761720218      35.869289334878061                10.19007
   280   2      9.1707596761720218      35.869289334878061      14.292730000000001
   281   1      9.1958784424633819      12.178318995913896      3.0874199999999998
   282   1      9.1958784424633819      12.178318995913896      7.1900700000000004
   283   1      9.3363033661672645      33.052521191916568                 10.3278
   284   1      9.3363033661672645      33.052521191916568                14.43045
   285   3      9.3615699534127632      14.995074682053414      5.2105499999999996
   286   2      9.3615699534127632      14.995074682053414      2.9496899999999999
   287   2      9.3615699534127632      14.995074682053414      7.0523499999999997
   288   3      9.5018545302556934      30.235759692593454                12.45093
   289   2      9.5018545302556934      30.235759692593454                10.19007
   290   2      9.5018545302556934      30.235759692593454      14.292730000000001
   291   1       9.527261464362148      17.811830368192933      3.0874199999999998
   292   1       9.527261464362148      17.811830368192933      7.1900700000000004
   293   1      9.6673982202509379      27.418991549631965                 10.3278
   294   1      9.6673982202509379      27.418991549631965                14.43045
   295   3      9.6929529753115311      20.628586054332455      5.2105499999999996
   296   2      9.6929529753115311      20.628586054332455      2.9496899999999999
   297   2      9.6929529753115311      20.628586054332455      7.0523499999999997
   298   3      9.8329493843393685      24.602230050308854                12.45093
   299   2      9.8329493843393685      24.602230050308854                10.19007
   300   2      9.8329493843393685      24.602230050308854      14.292730000000001
   301   1      9.8586444862609159      23.445341740471971      3.0874199999999998
   302   1      9.8586444862609159      23.445341740471971      7.1900700000000004
   303   1      9.9985005484277991      21.785468550985744                 10.3278
   304   1      9.9985005484277991      21.785468550985744                14.43045
   305   3      10.024335997210295       26.26209742661149      5.2105499999999996
   306   2      10.024335997210295       26.26209742661149      2.9496899999999999
   307   2      10.024335997210295       26.26209742661149      7.0523499999999997
   308   3      10.164044238423045      18.968700408024251                12.45093
   309   2      10.164044238423045      18.968700408024251                10.19007
   310   2      10.164044238423045      18.968700408024251      14.292730000000001
   311   1      10.190027508159682      29.078853112751009      3.0874199999999998
   312   1      10.190027508159682      29.078853112751009      7.1900700000000004
   313   1      10.329591250237479      16.154397054904813                 10.3278
   314   1      10.329591250237479      16.154397054904813                14.43045
   315   3      10.355719019109067      31.895608798890528      5.2105499999999996
   316   2      10.355719019109067      31.895608798890528      2.9496899999999999
   317   2      10.355719019109067      31.895608798890528      7.0523499999999997
   318   3      10.495134940232726      13.337628911943316                12.45093
   319   2      10.495134940232726      13.337628911943316                10.19007
   320   2      10.495134940232726      13.337628911943316      14.292730000000001
   321   1      10.521410530058446      34.712364485030044      3.0874199999999998
   322   1      10.521410530058446      34.712364485030044      7.1900700000000004
   323   1      10.660686104321156      10.520867412620207                 10.3278
   324   1      10.660686104321156      10.520867412620207                14.43045
   325   3      10.687102041007831      37.529120171169566      5.2105499999999996
   326   2      10.687102041007831      37.529120171169566      2.9496899999999999
   327   2      10.687102041007831      37.529120171169566      7.0523499999999997
   328   3      10.826229794316401      7.7040992696587098                12.45093
   329   2      10.826229794316401      7.7040992696587098                10.19007
   330   2      10.826229794316401      7.7040992696587098      14.292730000000001
   331   1      10.852793551957211      40.345875857309082      3.0874199999999998
   332   1      10.852793551957211      40.345875857309082      7.1900700000000004
   333   1      10.994229139150919      4.8848846068607212                 10.3278
   334   1      10.994229139150919      4.8848846068607212                14.43045
   335   3      11.018485062906597      43.162631543448597      5.2105499999999996
   336   2      11.018485062906597      43.162631543448597      2.9496899999999999
   337   2      11.018485062906597      43.162631543448597      7.0523499999999997
   338   3       11.15978030323935      2.0681231075376134                12.45093
   339   2       11.15978030323935      2.0681231075376134                10.19007
   340   2       11.15978030323935      2.0681231075376134      14.292730000000001
   341   1      11.184176573855979       45.97938722958812      3.0874199999999998
   342   1      11.184176573855979       45.97938722958812      7.1900700000000004
   343   1      11.325330636872982      47.301885665804136                 10.3278
   344   1      11.325330636872982      47.301885665804136                14.43045
   345   3      11.349861441166979     0.74561221449962567      5.2105499999999996
   346   2      11.349861441166979     0.74561221449962567      2.9496899999999999
   347   2      11.349861441166979     0.74561221449962567      7.0523499999999997
   348   3      11.490881800961409      44.485124166481022                12.45093
   349   2      11.490881800961409      44.485124166481022                10.19007
   350   2      11.490881800961409      44.485124166481022      14.292730000000001
   351   1      11.515552952116362      3.5623679006391438      3.0874199999999998
   352   1      11.515552952116362      3.5623679006391438      7.1900700000000004
   353   1      11.656425490956652      41.668356023519522                 10.3278
   354   1      11.656425490956652      41.668356023519522                14.43045
   355   3      11.681244463065745       6.379123586778662      5.2105499999999996
   356   2      11.681244463065745       6.379123586778662      2.9496899999999999
   357   2      11.681244463065745       6.379123586778662      7.0523499999999997