(written by ASE)

1414 atoms
3 atom types

0.0      40.102813586875932  xlo xhi
0.0      40.102813586875932  ylo yhi
0.0      61.480760591600003  zlo zhi

Masses

     1       137.3269999646734 # Ba
     2      15.998999995884349 # O
     3      47.866999987686484 # Ti

Atoms # atomic

     1   2    0.092389203110997742        11.0158627005627                12.30396
     2   3    0.092809108805266785       31.07141638088973                12.45093
     3   2    0.092809108805266785       31.07141638088973                10.19007
     4   2    0.092809108805266785       31.07141638088973      14.292730000000001
     5   2     0.09925993490939819      29.084467412284205                 5.06358
     6   1    0.099259934909397468       9.033056071780015      3.0874199999999998
     7   1    0.099259934909397468       9.033056071780015      7.1900700000000004
     8   1     0.29088320196284723      13.000322086118322                 10.3278
     9   1     0.29088320196284723      13.000322086118322                14.43045
    10   2     0.29129315728521382      33.055874771408163                12.30396
    11   3     0.29778876006290506      27.099179160749134      5.2105499999999996
    12   2     0.29778876006290506      27.099179160749134      2.9496899999999999
    13   2     0.29778876006290506      27.099179160749134      7.0523499999999997
    14   2     0.29778876006290433      7.0477678202449461                 5.06358
    15   2     0.48936426533122385      14.985614317802153                12.30396
    16   3     0.48978417102549232       35.04116799812919                12.45093
    17   2     0.48978417102549232       35.04116799812919                10.19007
    18   2     0.48978417102549232       35.04116799812919      14.292730000000001
    19   2     0.49631758521641195      25.113890909214067                 5.06358
    20   1     0.49631758521641117       5.062479568709878      3.0874199999999998
    21   1     0.49631758521641117       5.062479568709878      7.1900700000000004
    22   1     0.68785826418307372      16.970073703357773                 10.3278
    23   1     0.68785826418307372      16.970073703357773                14.43045
    24   2     0.68826722446825006       37.02563633901952                12.30396
    25   3     0.69484641036991845         23.128602657679      5.2105499999999996
    26   2     0.69484641036991845         23.128602657679      2.9496899999999999
    27   2     0.69484641036991845         23.128602657679      7.0523499999999997
    28   2      0.6948464103699179        3.07719131717481                 5.06358
    29   2     0.88634927792335205      18.955366930078792                12.30396
    30   3     0.88675923324571948      39.010919615368643                12.45093
    31   2     0.88675923324571948      39.010919615368643                10.19007
    32   2     0.88675923324571948      39.010919615368643      14.292730000000001
    33   2     0.89337523552342535      21.143314406143933                 5.06358
    34   1     0.89337523552342479      1.0919030656397413      3.0874199999999998
    35   1     0.89337523552342479      1.0919030656397413      7.1900700000000004
    36   1      1.0848333264033001      20.939825320597226                 10.3278
    37   1      1.0848333264033001      20.939825320597226                14.43045
    38   2      1.0852512420231877     0.89257622065968611                12.30396
    39   3      1.0919040606769324      19.158026154608862      5.2105499999999996
    40   2      1.0919040606769324      19.158026154608862      2.9496899999999999
    41   2      1.0919040606769324      19.158026154608862      7.0523499999999997
    42   2      1.0919040606769321       39.20943749511305                 5.06358
    43   2      1.2833243401435783      22.925118547318245                12.30396
    44   3      1.2837333004287546       2.877858501971613                12.45093
    45   2      1.2837333004287546       2.877858501971613                10.19007
    46   2      1.2837333004287546       2.877858501971613      14.292730000000001
    47   2      1.2904328858304392      17.172737903073795                 5.06358
    48   1       1.290432885830439      37.224149243577983      3.0874199999999998
    49   1       1.290432885830439      37.224149243577983      7.1900700000000004
    50   1      1.4818083886235263      24.909576937836679                 10.3278
    51   1      1.4818083886235263      24.909576937836679                14.43045
    52   2      1.4822263042434141       4.862327837899139                12.30396
    53   3      1.4889617109839459      15.187449651538726      5.2105499999999996
    54   2      1.4889617109839459      15.187449651538726      2.9496899999999999
    55   2      1.4889617109839459      15.187449651538726      7.0523499999999997
    56   2      1.4889617109839459      35.238860992042909                 5.06358
    57   2      1.6802994023638043      26.894870164557698                12.30396
    58   3      1.6807073676117907      6.8476200695829679                12.45093
    59   2      1.6807073676117907      6.8476200695829679                10.19007
    60   2      1.6807073676117907      6.8476200695829679      14.292730000000001
    61   2      1.6874905361374526      13.202161400003659                 5.06358
    62   1      1.6874905361374519      33.253572740507849      3.0874199999999998
    63   1      1.6874905361374519      33.253572740507849      7.1900700000000004
    64   2      1.8792013664636402      8.8320794551385902                12.30396
    65   1      1.8796113217860075      28.887632140428433                 10.3278
    66   1      1.8796113217860075      28.887632140428433                14.43045
    67   3      1.8860193612909595       11.21687314846859      5.2105499999999996
    68   2      1.8860193612909595       11.21687314846859      2.9496899999999999
    69   2      1.8860193612909595       11.21687314846859      7.0523499999999997
    70   2      1.8860193612909593      31.268284488972778                 5.06358
    71   3      2.0776824298320169      10.817371686822421                12.45093
    72   2      2.0776824298320169      10.817371686822421                10.19007
    73   2      2.0776824298320169      10.817371686822421      14.292730000000001
    74   2      2.0781023355262858      30.872925367149456                12.30396
    75   2      2.0845481864444664      9.2315848969335228                 5.06358
    76   1      2.0845481864444659      29.282996237437711      3.0874199999999998
    77   1      2.0845481864444659      29.282996237437711      7.1900700000000004
    78   2      2.2761764286838666      12.801831072378043                12.30396
    79   1      2.2765853889690435      32.857393708039787                 10.3278
    80   1      2.2765853889690435      32.857393708039787                14.43045
    81   3      2.2830770115979733       7.246296645398453      5.2105499999999996
    82   2      2.2830770115979733       7.246296645398453      2.9496899999999999
    83   2      2.2830770115979733       7.246296645398453      7.0523499999999997
    84   2      2.2830770115979728      27.297707985902644                 5.06358
    85   3      2.4746574920522431      14.787123304061872                12.45093
    86   2      2.4746574920522431      14.787123304061872                10.19007
    87   2      2.4746574920522431      14.787123304061872      14.292730000000001
    88   2      2.4750764027093224      34.842686934760806                12.30396
    89   2      2.4816058367514797      5.2610083938633849                 5.06358
    90   1      2.4816058367514797      25.312419734367573      3.0874199999999998
    91   1      2.4816058367514797      25.312419734367573      7.1900700000000004
    92   2      2.6731514909040919      16.771582689617496                12.30396
    93   1      2.6735604511892692       36.82714532527924                 10.3278
    94   1      2.6735604511892692       36.82714532527924                14.43045
    95   3      2.6801346619049866      3.2757201423283169      5.2105499999999996
    96   2      2.6801346619049866      3.2757201423283169      2.9496899999999999
    97   2      2.6801346619049866      3.2757201423283169      7.0523499999999997
    98   2      2.6801346619049862      23.327131482832506                 5.06358
    99   3      2.8716325542724697      18.756874921301328                12.45093
   100   2      2.8716325542724697      18.756874921301328                10.19007
   101   2      2.8716325542724697      18.756874921301328      14.292730000000001
   102   2      2.8720514649295481      38.812438552000259                12.30396
   103   2      2.8786634870584935      1.2904318907932482                 5.06358
   104   1      2.8786634870584931      21.341843231297439      3.0874199999999998
   105   1      2.8786634870584931      21.341843231297439      7.1900700000000004
   106   2      3.0701255580871285      20.741344257228853                12.30396
   107   1       3.070534518372305     0.69408421188221703                 10.3278
   108   1       3.070534518372305     0.69408421188221703                14.43045
   109   3          3.077192312212       39.40796632026656      5.2105499999999996
   110   2          3.077192312212       39.40796632026656      2.9496899999999999
   111   2          3.077192312212       39.40796632026656      7.0523499999999997
   112   2          3.077192312212      19.356554979762368                 5.06358
   113   3      3.2686076164926958      22.726626538540778                12.45093
   114   2      3.2686076164926958      22.726626538540778                10.19007
   115   2      3.2686076164926958      22.726626538540778      14.292730000000001
   116   2      3.2690255321125838      2.6793774386032365                12.30396
   117   2      3.2757211373655069      37.422678068731486                 5.06358
   118   1      3.2757211373655069      17.371266728227301      3.0874199999999998
   119   1      3.2757211373655069      17.371266728227301      7.1900700000000004
   120   2      3.4671006203073547      24.711095874468302                12.30396
   121   1      3.4675195309644331      4.6638368241588593                 10.3278
   122   1      3.4675195309644331      4.6638368241588593                14.43045
   123   3      3.4742499625190137      35.437389817196419      5.2105499999999996
   124   2      3.4742499625190137      35.437389817196419      2.9496899999999999
   125   2      3.4742499625190137      35.437389817196419      7.0523499999999997
   126   2      3.4742499625190133      15.385978476692232                 5.06358
   127   3       3.665591634047634      26.696389101189322                12.45093
   128   2       3.665591634047634      26.696389101189322                10.19007
   129   2       3.665591634047634      26.696389101189322      14.292730000000001
   130   2        3.66600059433281       6.649129055842689                12.30396
   131   2      3.6727787876725202      33.452101565661359                 5.06358
   132   1      3.6727787876725202      13.400690225157165      3.0874199999999998
   133   1      3.6727787876725202      13.400690225157165      7.1900700000000004
   134   1      3.8644945931846597      8.6335884413983131                 10.3278
   135   1      3.8644945931846597      8.6335884413983131                14.43045
   136   2      3.8649035534698362      28.689151077060057                12.30396
   137   3      3.8713076128260271      31.466813314126284      5.2105499999999996
   138   2      3.8713076128260271      31.466813314126284      2.9496899999999999
   139   2      3.8713076128260271      31.466813314126284      7.0523499999999997
   140   2      3.8713076128260271      11.415401973622096                 5.06358
   141   2      4.0629756565530357       10.61888067308214                12.30396
   142   3       4.063394567210115      30.674444303781076                12.45093
   143   2       4.063394567210115      30.674444303781076                10.19007
   144   2       4.063394567210115      30.674444303781076      14.292730000000001
   145   2       4.069836437979534      29.481525062591217                 5.06358
   146   1       4.069836437979534      9.4301137220870288      3.0874199999999998
   147   1       4.069836437979534      9.4301137220870288      7.1900700000000004
   148   1      4.2614696554048859      12.603340058637764                 10.3278
   149   1      4.2614696554048859      12.603340058637764                14.43045
   150   2      4.2618786156900619      32.658902694299506                12.30396
   151   3      4.2683652631330409       27.49623681105615      5.2105499999999996
   152   2      4.2683652631330409       27.49623681105615      2.9496899999999999
   153   2      4.2683652631330409       27.49623681105615      7.0523499999999997
   154   2      4.2683652631330409      7.4448254705519599                 5.06358
   155   2      4.4599507187732614      14.588632290321593                12.30396
   156   3      4.4603696294303408      34.644195921020533                12.45093
   157   2      4.4603696294303408      34.644195921020533                10.19007
   158   2      4.4603696294303408      34.644195921020533      14.292730000000001
   159   2      4.4668940882865478      25.510948559521079                 5.06358
   160   1      4.4668940882865478      5.4595372190168909      3.0874199999999998
   161   1      4.4668940882865478      5.4595372190168909      7.1900700000000004
   162   1      4.6584437225879221       16.57310162624912                 10.3278
   163   1      4.6584437225879221       16.57310162624912                14.43045
   164   2      4.6588536779102885      36.628654311538959                12.30396
   165   3      4.6654229134400538      23.525660307986016      5.2105499999999996
   166   2      4.6654229134400538      23.525660307986016      2.9496899999999999
   167   2      4.6654229134400538      23.525660307986016      7.0523499999999997
   168   2      4.6654229134400547      3.4742489674818233                 5.06358
   169   2      4.8569247859562985      18.558393857932948                12.30396
   170   3      4.8573446916505683      38.613947538259978                12.45093
   171   2      4.8573446916505683      38.613947538259978                10.19007
   172   2      4.8573446916505683      38.613947538259978      14.292730000000001
   173   2      4.8639517385935607      21.540372056450945                 5.06358
   174   1      4.8639517385935607      1.4889607159467548      3.0874199999999998
   175   1      4.8639517385935607      1.4889607159467548      7.1900700000000004
   176   1      5.0554187848081487      20.542853243488572                 10.3278
   177   1      5.0554187848081487      20.542853243488572                14.43045
   178   2      5.0558277450933247     0.49559319814193814                12.30396
   179   3      5.0624805637470676      19.555083804915878      5.2105499999999996
   180   2      5.0624805637470676      19.555083804915878      2.9496899999999999
   181   2      5.0624805637470676      19.555083804915878      7.0523499999999997
   182   2      5.0624805637470702      39.606495145420062                 5.06358
   183   2      5.2538998481765242      22.528145475172401                12.30396
   184   3      5.2543187588336027      2.4808864248629576                12.45093
   185   2      5.2543187588336027      2.4808864248629576                10.19007
   186   2      5.2543187588336027      2.4808864248629576      14.292730000000001
   187   2      5.2610093889005745      17.569795553380807                 5.06358
   188   1      5.2610093889005771      37.621206893884995      3.0874199999999998
   189   1      5.2610093889005771      37.621206893884995      7.1900700000000004
   190   1      5.4523938470283744      24.512604860728025                 10.3278
   191   1      5.4523938470283744      24.512604860728025                14.43045
   192   2      5.4528028073135504      4.4653448153813908                12.30396
   193   3      5.4595382140540814       15.58450730184574      5.2105499999999996
   194   2      5.4595382140540814       15.58450730184574      2.9496899999999999
   195   2      5.4595382140540814       15.58450730184574      7.0523499999999997
   196   2       5.459538214054084      35.635918642349928                 5.06358
   197   2      5.6508749103967508      26.497897092411854                12.30396
   198   3      5.6512938210538293      6.4506380421024101                12.45093
   199   2      5.6512938210538293      6.4506380421024101                10.19007
   200   2      5.6512938210538293      6.4506380421024101      14.292730000000001
   201   2      5.6580670392075882      13.599219050310673                 5.06358
   202   1        5.65806703920759      33.650630390814861      3.0874199999999998
   203   1        5.65806703920759      33.650630390814861      7.1900700000000004
   204   2      5.8497768744965875      8.4351063829927444                12.30396
   205   1      5.8501967801908563       28.49066006331978                 10.3278
   206   1      5.8501967801908563       28.49066006331978                14.43045
   207   3      5.8565958643610951      11.613930798775604      5.2105499999999996
   208   2      5.8565958643610951      11.613930798775604      2.9496899999999999
   209   2      5.8565958643610951      11.613930798775604      7.0523499999999997
   210   2      5.8565958643610969       31.66534213927979                 5.06358
   211   3      6.0482678882368646      10.420399609713764                12.45093
   212   2      6.0482678882368646      10.420399609713764                10.19007
   213   2      6.0482678882368646      10.420399609713764      14.292730000000001
   214   2      6.0486877939311343      30.475953290040799                12.30396
   215   2       6.055124689514602      9.6286425472405348                 5.06358
   216   1      6.0551246895146038      29.680053887744727      3.0874199999999998
   217   1      6.0551246895146038      29.680053887744727      7.1900700000000004
   218   2      6.2467618870887156      12.404858995269388                12.30396
   219   1      6.2471718424110811      32.460411680559233                 10.3278
   220   1      6.2471718424110811      32.460411680559233                14.43045
   221   3      6.2536535146681089      7.6433542957054668      5.2105499999999996
   222   2      6.2536535146681089      7.6433542957054668      2.9496899999999999
   223   2      6.2536535146681089      7.6433542957054668      7.0523499999999997
   224   2      6.2536535146681107      27.694765636209656                 5.06358
   225   3      6.4452429504570912      14.390151226953217                12.45093
   226   2      6.4452429504570912      14.390151226953217                10.19007
   227   2      6.4452429504570912      14.390151226953217      14.292730000000001
   228   2      6.4456628561513618      34.445704907280252                12.30396
   229   2      6.4521823398216158      5.6580660441703978                 5.06358
   230   1      6.4521823398216176      25.709477384674585      3.0874199999999998
   231   1      6.4521823398216176      25.709477384674585      7.1900700000000004
   232   2      6.6437369493089404      16.374610612508839                12.30396
   233   1      6.6441459095941182      36.430173248170583                 10.3278
   234   1      6.6441459095941182      36.430173248170583                14.43045
   235   3      6.6507111649751227      3.6727777926353302      5.2105499999999996
   236   2      6.6507111649751227      3.6727777926353302      2.9496899999999999
   237   2      6.6507111649751227      3.6727777926353302      7.0523499999999997
   238   2      6.6507111649751236      23.724189133139522                 5.06358
   239   3      6.8422180126773178      18.359902844192668                12.45093
   240   2      6.8422180126773178      18.359902844192668                10.19007
   241   2      6.8422180126773178      18.359902844192668      14.292730000000001
   242   2      6.8426379183715866      38.415456524519705                12.30396
   243   2      6.8492399901286287      1.6874895411002617                 5.06358
   244   1      6.8492399901286305      21.738900881604451      3.0874199999999998
   245   1      6.8492399901286305      21.738900881604451      7.1900700000000004
   246   2      7.0407120115291679      20.344362229748292                12.30396
   247   1      7.0411199767771535     0.29711213477356135                 10.3278
   248   1      7.0411199767771535     0.29711213477356135                14.43045
   249   3      7.0477688152821374      39.805023970573572      5.2105499999999996
   250   2      7.0477688152821374      39.805023970573572      2.9496899999999999
   251   2      7.0477688152821374      39.805023970573572      7.0523499999999997
   252   2      7.0477688152821374      19.753612630069384                 5.06358
   253   3      7.2391930748975453      22.329654461432121                12.45093
   254   2      7.2391930748975453      22.329654461432121                10.19007
   255   2      7.2391930748975453      22.329654461432121      14.292730000000001
   256   2      7.2396109905174324      2.2824053614945807                12.30396
   257   2      7.2462976404356443      37.819735719038505                 5.06358
   258   1      7.2462976404356443      17.768324378534313      3.0874199999999998
   259   1      7.2462976404356443      17.768324378534313      7.1900700000000004
   260   2      7.4376870737493928      24.314113846987745                12.30396
   261   1      7.4380950389973801      4.2668637520130135                 10.3278
   262   1      7.4380950389973801      4.2668637520130135                14.43045
   263   3      7.4448264655891512      35.834447467503431      5.2105499999999996
   264   2      7.4448264655891512      35.834447467503431      2.9496899999999999
   265   2      7.4448264655891512      35.834447467503431      7.0523499999999997
   266   2      7.4448264655891512      15.783036126999246                 5.06358
   267   3      7.6361681371177692      26.299406078671574                12.45093
   268   2      7.6361681371177692      26.299406078671574                10.19007
   269   2      7.6361681371177692      26.299406078671574      14.292730000000001
   270   2       7.636586052737659      6.2521569787340336                12.30396
   271   2      7.6433552907426572      33.849159215968371                 5.06358
   272   1      7.6433552907426581      13.797747875464179      3.0874199999999998
   273   1      7.6433552907426581      13.797747875464179      7.1900700000000004
   274   1      7.8350701012176058      8.2366153692524673                 10.3278
   275   1      7.8350701012176058      8.2366153692524673                14.43045
   276   2      7.8354890118746843        28.2921789999514                12.30396
   277   3      7.8418841158961641      31.863870964433296      5.2105499999999996
   278   2      7.8418841158961641      31.863870964433296      2.9496899999999999
   279   2      7.8418841158961641      31.863870964433296      7.0523499999999997
   280   2       7.841884115896165       11.81245962392911                 5.06358
   281   2      8.0335611149578838      10.221908595973485                12.30396
   282   3      8.0339810206521545      30.277462276300518                12.45093
   283   2      8.0339810206521545      30.277462276300518                10.19007
   284   2      8.0339810206521545      30.277462276300518      14.292730000000001
   285   2      8.0404129410496701      29.878582712898233                 5.06358
   286   1      8.0404129410496719      9.8271713723940426      3.0874199999999998
   287   1      8.0404129410496719      9.8271713723940426      7.1900700000000004
   288   1      8.2320451634378315      12.206366986491918                 10.3278
   289   1      8.2320451634378315      12.206366986491918                14.43045
   290   2        8.23246407409491      32.261930617190856                12.30396
   291   3      8.2389417662031779      27.893294461363162      5.2105499999999996
   292   2      8.2389417662031779      27.893294461363162      2.9496899999999999
   293   2      8.2389417662031779      27.893294461363162      7.0523499999999997
   294   2      8.2389417662031779      7.8418831208589737                 5.06358
   295   2      8.4305361771781104      14.191660213212938                12.30396
   296   3      8.4309550878351907      34.247223843911868                12.45093
   297   2      8.4309550878351907      34.247223843911868                10.19007
   298   2      8.4309550878351907      34.247223843911868      14.292730000000001
   299   2      8.4374705913566839      25.908006209828095                 5.06358
   300   1      8.4374705913566856      5.8565948693239047      3.0874199999999998
   301   1      8.4374705913566856      5.8565948693239047      7.1900700000000004
   302   1      8.6290202256580582      16.176118603731371                 10.3278
   303   1      8.6290202256580582      16.176118603731371                14.43045
   304   2      8.6294391363151384      36.231682234430309                12.30396
   305   3      8.6359994165101917      23.922717958293028      5.2105499999999996
   306   2      8.6359994165101917      23.922717958293028      2.9496899999999999
   307   2      8.6359994165101917      23.922717958293028      7.0523499999999997
   308   2      8.6359994165101917      3.8713066177888371                 5.06358
   309   2       8.827511239398337      18.161411830452391                12.30396
   310   3      8.8279301500554155      38.216975461151321                12.45093
   311   2      8.8279301500554155      38.216975461151321                10.19007
   312   2      8.8279301500554155      38.216975461151321      14.292730000000001
   313   2      8.8345282416636977       21.93742970675796                 5.06358
   314   1      8.8345282416636994      1.8860183662537686      3.0874199999999998
   315   1      8.8345282416636994      1.8860183662537686      7.1900700000000004
   316   1       9.026004243212995      20.145881166379915                 10.3278
   317   1       9.026004243212995      20.145881166379915                14.43045
   318   2      9.0264132034981728    0.098621121033282452                12.30396
   319   3      9.0330570668172054       19.95214145522289      5.2105499999999996
   320   2      9.0330570668172054       19.95214145522289      2.9496899999999999
   321   2      9.0330570668172054       19.95214145522289      7.0523499999999997
   322   2      9.0330570668172054      40.003552795727074                 5.06358
   323   2      9.2244863016185636       22.13116344769184                12.30396
   324   3      9.2249042172384517      2.0839143477543018                12.45093
   325   2      9.2249042172384517      2.0839143477543018                10.19007
   326   2      9.2249042172384517      2.0839143477543018      14.292730000000001
   327   2      9.2315858919707114      17.966853203687819                 5.06358
   328   1      9.2315858919707132      38.018264544192007      3.0874199999999998
   329   1      9.2315858919707132      38.018264544192007      7.1900700000000004
   330   1      9.4229793054332216      24.115632783619368                 10.3278
   331   1      9.4229793054332216      24.115632783619368                14.43045
   332   2      9.4233882657183976      4.0683727382727355                12.30396
   333   3      9.4301147171242192      15.981564952152754      5.2105499999999996
   334   2      9.4301147171242192      15.981564952152754      2.9496899999999999
   335   2      9.4301147171242192      15.981564952152754      7.0523499999999997
   336   2      9.4301147171242192       36.03297629265694                 5.06358
   337   2      9.6214603688015981      26.100925015303197                12.30396
   338   3      9.6218792794586765      6.0536659649937539                12.45093
   339   2      9.6218792794586765      6.0536659649937539                10.19007
   340   2      9.6218792794586765      6.0536659649937539      14.292730000000001
   341   2      9.6286435422777252      13.996276700617686                 5.06358
   342   1      9.6286435422777252       34.04768804112188      3.0874199999999998
   343   1      9.6286435422777252       34.04768804112188      7.1900700000000004
   344   2       9.820363327938626      8.0381243555121866                12.30396
   345   1      9.8207822385957044      28.093687986211126                 10.3278
   346   1      9.8207822385957044      28.093687986211126                14.43045
   347   3      9.8271723674312312      12.010988449082616      5.2105499999999996
   348   2      9.8271723674312312      12.010988449082616      2.9496899999999999
   349   2      9.8271723674312312      12.010988449082616      7.0523499999999997
   350   2       9.827172367431233      32.062399789586806                 5.06358
   351   3      10.018854341678903      10.023417582233208                12.45093
   352   2      10.018854341678903      10.023417582233208                10.19007
   353   2      10.018854341678903      10.023417582233208      14.292730000000001
   354   2      10.019263301964081      30.078980217894951                12.30396
   355   2      10.025701192584739      10.025700197547549                 5.06358
   356   1      10.025701192584739      30.077111538051739      3.0874199999999998
   357   1      10.025701192584739      30.077111538051739      7.1900700000000004