(written by ASE)

1582 atoms
3 atom types

0.0      42.418311629001145  xlo xhi
0.0      42.418311629001145  ylo yhi
0.0      61.480760591600003  zlo zhi

Masses

     1       137.3269999646734 # Ba
     2      15.998999995884349 # O
     3      47.866999987686484 # Ti

Atoms # atomic

     1   1    0.078816416515782306      41.009256851186507                 10.3278
     2   1    0.078816416515782306      41.009256851186507                14.43045
     3   2    0.079510668516651381      19.801474383148644                12.30396
     4   3     0.09384537310907988      22.616841220746231      5.2105499999999996
     5   2     0.09384537310907988      22.616841220746231      2.9496899999999999
     6   2     0.09384537310907988      22.616841220746231      7.0523499999999997
     7   2    0.093845373109079352      1.4076805966361892                 5.06358
     8   3     0.26660311626251815      38.193887191426313                12.45093
     9   2     0.26660311626251815      38.193887191426313                10.19007
    10   2     0.26660311626251815      38.193887191426313      14.292730000000001
    11   2     0.26728984249643778      16.986098138342371                12.30396
    12   2     0.28153706004810636      4.2230559007215938                 5.06358
    13   1     0.28153706004810714      25.432216524831638      3.0874199999999998
    14   1     0.28153706004810714      25.432216524831638      7.1900700000000004
    15   1     0.45438981600925166       35.37851753166612                 10.3278
    16   1     0.45438981600925166       35.37851753166612                14.43045
    17   2     0.45506995719709198      14.170736004349125                12.30396
    18   3     0.46922874698713257      28.247591828917042      5.2105499999999996
    19   2     0.46922874698713257      28.247591828917042      2.9496899999999999
    20   2     0.46922874698713257      28.247591828917042      7.0523499999999997
    21   2     0.46922874698713313      7.0384312048069972                 5.06358
    22   3     0.64216993070990325      32.563155397672872                12.45093
    23   2     0.64216993070990325      32.563155397672872                10.19007
    24   2     0.64216993070990325      32.563155397672872      14.292730000000001
    25   2     0.64285665694382577      11.355366344588932                12.30396
    26   2     0.65692043392616006      9.8538065088924007                 5.06358
    27   1     0.65692043392615984      31.062967133002449      3.0874199999999998
    28   1     0.65692043392615984      31.062967133002449      7.1900700000000004
    29   1     0.82995663045664081      29.747785737912679                 10.3278
    30   1     0.82995663045664081      29.747785737912679                14.43045
    31   2     0.83064335669055955      8.5399966848287381                12.30396
    32   3     0.84461212086518944      33.878342437087852      5.2105499999999996
    33   2     0.84461212086518944      33.878342437087852      2.9496899999999999
    34   2     0.84461212086518944      33.878342437087852      7.0523499999999997
    35   2     0.84461212086518733      12.669181812977808                 5.06358
    36   3       1.017735804436426      26.932409493106405                12.45093
    37   2       1.017735804436426      26.932409493106405                10.19007
    38   2       1.017735804436426      26.932409493106405      14.292730000000001
    39   2      1.0184159456242672      5.7246279657894128                12.30396
    40   2      1.0323038078042139      15.484557117063209                 5.06358
    41   1       1.032303807804213      36.693717741173252      3.0874199999999998
    42   1       1.032303807804213      36.693717741173252      7.1900700000000004
    43   1      1.2055149784162131      24.118415167255787                 10.3278
    44   1      1.2055149784162131      24.118415167255787                14.43045
    45   2      1.2062026453710004      2.9092583060292183                12.30396
    46   3      1.2199954947432403      39.509093045258659      5.2105499999999996
    47   2      1.2199954947432403      39.509093045258659      2.9496899999999999
    48   2      1.2199954947432403      39.509093045258659      7.0523499999999997
    49   2      1.2199954947432412      18.299932421148615                 5.06358
    50   2      1.3926158926498942    0.092527423172473908                12.30396
    51   3      1.3933016781629466      21.303045507495597                12.45093
    52   2      1.3933016781629466      21.303045507495597                10.19007
    53   2      1.3933016781629466      21.303045507495597      14.292730000000001
    54   2      1.4076871816822678      21.115307725234018                 5.06358
    55   1      1.4076871816822698      42.324468349344059      3.0874199999999998
    56   1      1.4076871816822698      42.324468349344059      7.1900700000000004
    57   2        1.58040165167576      39.695464900819339                12.30396
    58   1       1.581081792863603       18.48768337350235                 10.3278
    59   1       1.581081792863603       18.48768337350235                14.43045
    60   3      1.5953788686212951      2.7215224052093778      5.2105499999999996
    61   2      1.5953788686212951      2.7215224052093778      2.9496899999999999
    62   2      1.5953788686212951      2.7215224052093778      7.0523499999999997
    63   2      1.5953788686212962      23.930683029319422                 5.06358
    64   2      1.7681742406094685      36.880096181780019                12.30396
    65   3      1.7688684926103346      15.672313713742156                12.45093
    66   2      1.7688684926103346      15.672313713742156                10.19007
    67   2      1.7688684926103346      15.672313713742156      14.292730000000001
    68   2      1.7830705555603217      26.746058333404825                 5.06358
    69   1      1.7830705555603215      5.5368977092947818      3.0874199999999998
    70   1      1.7830705555603215      5.5368977092947818      7.1900700000000004
    71   2      1.9559609403562019      34.064726522019825                12.30396
    72   1      1.9566476665901211      12.856937468935882                 10.3278
    73   1      1.9566476665901211      12.856937468935882                14.43045
    74   3      1.9707622424993487      8.3522730133801861      5.2105499999999996
    75   2      1.9707622424993487      8.3522730133801861      2.9496899999999999
    76   2      1.9707622424993487      8.3522730133801861      7.0523499999999997
    77   2      1.9707622424993489      29.561433637490232                 5.06358
    78   2      2.1437476401029345      31.249356862259628                12.30396
    79   3      2.1444277812907764      10.041575334942635                12.45093
    80   2      2.1444277812907764      10.041575334942635                10.19007
    81   2      2.1444277812907764      10.041575334942635      14.292730000000001
    82   2      2.1584539294383762      32.376808941575639                 5.06358
    83   1      2.1584539294383767      11.167648317465591      3.0874199999999998
    84   1      2.1584539294383767      11.167648317465591      7.1900700000000004
    85   2      2.3315277548035911      28.433994728266384                12.30396
    86   1      2.3322144810375103      7.2262056751824417                 10.3278
    87   1      2.3322144810375103      7.2262056751824417                14.43045
    88   3      2.3461456163774019      13.983023621550995      5.2105499999999996
    89   2      2.3461456163774019      13.983023621550995      2.9496899999999999
    90   2      2.3461456163774019      13.983023621550995      7.0523499999999997
    91   2      2.3461456163774024      35.192184245661039                 5.06358
    92   2      2.5193069287833789      25.618618483460111                12.30396
    93   3      2.5200011807842437      4.4108360154222481                12.45093
    94   2      2.5200011807842437      4.4108360154222481                10.19007
    95   2      2.5200011807842437      4.4108360154222481      14.292730000000001
    96   2      2.5338373033164294      38.007559549746446                 5.06358
    97   1      2.5338373033164303      16.798398925636398      3.0874199999999998
    98   1      2.5338373033164303      16.798398925636398      7.1900700000000004
    99   1      2.7064069022961905      1.5940985475194245                 10.3278
   100   1      2.7064069022961905      1.5940985475194245                14.43045
   101   2      2.7070926878092418      22.804616631842546                12.30396
   102   3       2.721528990255456      19.613774229721802      5.2105499999999996
   103   2       2.721528990255456      19.613774229721802      2.9496899999999999
   104   2       2.721528990255456      19.613774229721802      7.0523499999999997
   105   2      2.7215289902554569      40.822934853831846                 5.06358
   106   3      2.8941926613220552      41.197036025166291                12.45093
   107   2      2.8941926613220552      41.197036025166291                10.19007
   108   2      2.8941926613220552      41.197036025166291      14.292730000000001
   109   2       2.894872802509898      19.989254497849302                12.30396
   110   2      2.9092140921484049      1.2199964354641093                 5.06358
   111   1      2.9092206771944844      22.429149533807205      3.0874199999999998
   112   1      2.9092206771944844      22.429149533807205      7.1900700000000004
   113   1      3.0819727760227105      38.381673891173044                 10.3278
   114   1      3.0819727760227105      38.381673891173044                14.43045
   115   2       3.082659502256631      17.173884838089105                12.30396
   116   3       3.096912364133511      25.244524837892609      5.2105499999999996
   117   2       3.096912364133511      25.244524837892609      2.9496899999999999
   118   2       3.096912364133511      25.244524837892609      7.0523499999999997
   119   2      3.0969123641335101      4.0353642137825663                 5.06358
   120   3      3.2697594757694461       35.56630423141285                12.45093
   121   2      3.2697594757694461       35.56630423141285                10.19007
   122   2      3.2697594757694461       35.56630423141285      14.292730000000001
   123   2      3.2704462020033658      14.358515178328913                12.30396
   124   2      3.2846040510725367      6.8507395178679706                 5.06358
   125   1      3.2846040510725381      28.059900141978016      3.0874199999999998
   126   1      3.2846040510725381      28.059900141978016      7.1900700000000004
   127   1      3.4575386497492331      32.750927986606584                 10.3278
   128   1      3.4575386497492331      32.750927986606584                14.43045
   129   2      3.4582187909370723      11.543146459289586                12.30396
   130   3      3.4722957380115655      30.875275446063419      5.2105499999999996
   131   2      3.4722957380115655      30.875275446063419      2.9496899999999999
   132   2      3.4722957380115655      30.875275446063419      7.0523499999999997
   133   2      3.4722957380115651       9.666114821953375                 5.06358
   134   3      3.6453187644498848      29.935565852613333                12.45093
   135   2      3.6453187644498848      29.935565852613333                10.19007
   136   2      3.6453187644498848      29.935565852613333      14.292730000000001
   137   2      3.6460054906838053      8.7277767995293924                12.30396
   138   2      3.6599874249505913      12.481490126038778                 5.06358
   139   1       3.659987424950589      33.690650750148826      3.0874199999999998
   140   1       3.659987424950589      33.690650750148826      7.1900700000000004
   141   1      3.8331054641966222       27.12019619285314                 10.3278
   142   1      3.8331054641966222       27.12019619285314                14.43045
   143   2      3.8337921904305401      5.9124071397691988                12.30396
   144   3      3.8476791118896188      36.506026054234226      5.2105499999999996
   145   2      3.8476791118896188      36.506026054234226      2.9496899999999999
   146   2      3.8476791118896188      36.506026054234226      7.0523499999999997
   147   2      3.8476791118896183      15.296865430124184                 5.06358
   148   2      4.0201979119424864      3.0956696718663754                12.30396
   149   3      4.0208921639433539      24.304826533092946                12.45093
   150   2      4.0208921639433539      24.304826533092946                10.19007
   151   2      4.0208921639433539      24.304826533092946      14.292730000000001
   152   2      4.0353707988286454      18.112240734209585                 5.06358
   153   1      4.0353707988286462      39.321401358319633      3.0874199999999998
   154   1      4.0353707988286462      39.321401358319633      7.1900700000000004
   155   2       4.207984611689219     0.28030001210618183                12.30396
   156   1        4.20867133792314      21.490832207242327                 10.3278
   157   1        4.20867133792314      21.490832207242327                14.43045
   158   3      4.2230624857676728      42.136776662405033      5.2105499999999996
   159   2      4.2230624857676728      42.136776662405033      2.9496899999999999
   160   2      4.2230624857676728      42.136776662405033      7.0523499999999997
   161   2       4.223062485767672      20.927616038294993                 5.06358
   162   2      4.3957637856690059      39.883245015519996                12.30396
   163   3      4.3964505119029278      18.675455962436057                12.45093
   164   2      4.3964505119029278      18.675455962436057                10.19007
   165   2      4.3964505119029278      18.675455962436057      14.292730000000001
   166   2      4.4107541727066986      23.742991342380396                 5.06358
   167   1      4.4107475876606204      2.5338382440372977      3.0874199999999998
   168   1      4.4107475876606204      2.5338382440372977      7.1900700000000004
   169   2      4.5835504854157412      37.067875355759803                12.30396
   170   1      4.5842306266035804       15.86009382844281                 10.3278
   171   1      4.5842306266035804       15.86009382844281                14.43045
   172   3      4.5984458596457252      5.3492060223557543      5.2105499999999996
   173   2      4.5984458596457252      5.3492060223557543      2.9496899999999999
   174   2      4.5984458596457252      5.3492060223557543      7.0523499999999997
   175   2      4.5984458596457269      26.558366646465799                 5.06358
   176   2      4.7713306001163964      34.252513221766556                12.30396
   177   3      4.7720173263503147      13.044724168682617                12.45093
   178   2      4.7720173263503147      13.044724168682617                10.19007
   179   2      4.7720173263503147      13.044724168682617      14.292730000000001
   180   2      4.7861375465847544      29.373741950551203                 5.06358
   181   1      4.7861375465847535      8.1645813264411604      3.0874199999999998
   182   1      4.7861375465847535      8.1645813264411604      7.1900700000000004
   183   2      4.9591172998631299      31.437143562006366                12.30396
   184   1      4.9598040260970491      10.229354508922421                 10.3278
   185   1      4.9598040260970491      10.229354508922421                14.43045
   186   3      4.9738292335237793      10.979956630526562      5.2105499999999996
   187   2      4.9738292335237793      10.979956630526562      2.9496899999999999
   188   2      4.9738292335237793      10.979956630526562      7.0523499999999997
   189   2      4.9738292335237784      32.189117254636606                 5.06358
   190   2      5.1468964738429159      28.621767317200092                12.30396
   191   3      5.1475766150307569       7.413985789883097                12.45093
   192   2      5.1475766150307569       7.413985789883097                10.19007
   193   2      5.1475766150307569       7.413985789883097      14.292730000000001
   194   2       5.161520920462805      35.004492558722013                 5.06358
   195   1      5.1615209204628076      13.795331934611967      3.0874199999999998
   196   1      5.1615209204628076      13.795331934611967      7.1900700000000004
   197   1      5.3339964473557284      4.5972473812594057                 10.3278
   198   1      5.3339964473557284      4.5972473812594057                14.43045
   199   2      5.3346765885435694      25.806405183206842                12.30396
   200   3      5.3492126074018325      16.610707238697373      5.2105499999999996
   201   2      5.3492126074018325      16.610707238697373      2.9496899999999999
   202   2      5.3492126074018325      16.610707238697373      7.0523499999999997
   203   2      5.3492126074018351      37.819867862807413                 5.06358
   204   3      5.5217765620563837      1.7818852472661584                12.45093
   205   2      5.5217765620563837      1.7818852472661584                10.19007
   206   2      5.5217765620563837      1.7818852472661584      14.292730000000001
   207   2      5.5224632882903055      22.991035523446651                12.30396
   208   2      5.5369042943408626       40.63524316689282                 5.06358
   209   1      5.5369042943408617      19.426082542782776      3.0874199999999998
   210   1      5.5369042943408617      19.426082542782776      7.1900700000000004
   211   1      5.7095623210822506      41.384822724913029                 10.3278
   212   1      5.7095623210822506      41.384822724913029                14.43045
   213   2      5.7102490473161698      20.177033671829086                12.30396
   214   3      5.7245959812798866       22.24145784686818      5.2105499999999996
   215   2      5.7245959812798866       22.24145784686818      2.9496899999999999
   216   2      5.7245959812798866       22.24145784686818      7.0523499999999997
   217   2      5.7245893962338084      1.0323047485250818                 5.06358
   218   3      5.8973490208289832      38.569453065152835                12.45093
   219   2      5.8973490208289832      38.569453065152835                10.19007
   220   2      5.8973490208289832      38.569453065152835      14.292730000000001
   221   2      5.8980291620168259      17.361671537835839                12.30396
   222   2      5.9122810831728358      3.8476800526104862                 5.06358
   223   1      5.9122876682189149      25.056833150953583      3.0874199999999998
   224   1      5.9122876682189149      25.056833150953583      7.1900700000000004
   225   1      6.0851216097626919      35.754084346113508                 10.3278
   226   1      6.0851216097626919      35.754084346113508                14.43045
   227   2      6.0858083359966111      14.546295293029566                12.30396
   228   3      6.0999793551579433      27.872208455038987      5.2105499999999996
   229   2      6.0999793551579433      27.872208455038987      2.9496899999999999
   230   2      6.0999793551579433      27.872208455038987      7.0523499999999997
   231   2      6.0999793551579415       6.663047830928944                 5.06358
   232   3       6.272908309509428      32.938714686353315                12.45093
   233   2       6.272908309509428      32.938714686353315                10.19007
   234   2       6.272908309509428      32.938714686353315      14.292730000000001
   235   2      6.2735884506972663      11.730933159036319                12.30396
   236   2      6.2876710420969681      9.4784231350143475                 5.06358
   237   1      6.2876710420969673       30.68758375912439      3.0874199999999998
   238   1      6.2876710420969673       30.68758375912439      7.1900700000000004
   239   1      6.4606884242100824      30.123352552360068                 10.3278
   240   1      6.4606884242100824      30.123352552360068                14.43045
   241   2      6.4613751504439989      8.9155634992761268                12.30396
   242   3      6.4753627290359947      33.502959063209801      5.2105499999999996
   243   2      6.4753627290359947      33.502959063209801      2.9496899999999999
   244   2      6.4753627290359947      33.502959063209801      7.0523499999999997
   245   2      6.4753627290359956      12.293798439099753                 5.06358
   246   2      6.6477874570020248      6.0988185056063555                12.30396
   247   3      6.6484751239568123      27.307982892599874                12.45093
   248   2      6.6484751239568123      27.307982892599874                10.19007
   249   2      6.6484751239568123      27.307982892599874      14.292730000000001
   250   2      6.6630544159750222      15.109173743185154                 5.06358
   251   1      6.6630544159750213      36.318334367295201      3.0874199999999998
   252   1      6.6630544159750213      36.318334367295201      7.1900700000000004
   253   2        6.83556757170268      3.2834563716131098                12.30396
   254   1      6.8362542979366019        24.4926066477936                 10.3278
   255   1      6.8362542979366019        24.4926066477936                14.43045
   256   3      6.8507461029140515      39.133709671380601      5.2105499999999996
   257   2      6.8507461029140515      39.133709671380601      2.9496899999999999
   258   2      6.8507461029140515      39.133709671380601      7.0523499999999997
   259   2      6.8507461029140488       17.92454904727056                 5.06358
   260   2      7.0233542714494126     0.46808671185291506                12.30396
   261   3      7.0240344126372554      21.677244513800357                12.45093
   262   2      7.0240344126372554      21.677244513800357                10.19007
   263   2      7.0240344126372554      21.677244513800357      14.292730000000001
   264   2      7.0384377898530763      20.739924351355963                 5.06358
   265   1       7.038437789853079      41.949084975466008      3.0874199999999998
   266   1       7.038437789853079      41.949084975466008      7.1900700000000004
   267   2       7.211133445429204      40.071031715266734                12.30396
   268   1      7.2118201716631214      18.863242662182792                 10.3278
   269   1      7.2118201716631214      18.863242662182792                14.43045
   270   3      7.2261228917460238      2.3461465570982702      5.2105499999999996
   271   2      7.2261228917460238      2.3461465570982702      2.9496899999999999
   272   2      7.2261228917460238      2.3461465570982702      7.0523499999999997
   273   2      7.2261294767921029       23.55529965544137                 5.06358
   274   2      7.3989201451759339      37.255662055506541                12.30396
   275   3       7.399606871409854      16.047873002422595                12.45093
   276   2       7.399606871409854      16.047873002422595                10.19007
   277   2       7.399606871409854      16.047873002422595      14.292730000000001
   278   2      7.4138211637311313      26.370674959526774                 5.06358
   279   1      7.4138145786850522       5.161521861183676      3.0874199999999998
   280   1      7.4138145786850522       5.161521861183676      7.1900700000000004
   281   2      7.5867068449226691       34.44029239574634                12.30396
   282   1      7.5873869861105083      13.232510868429349                 10.3278
   283   1      7.5873869861105083      13.232510868429349                14.43045
   284   3      7.6015128506701561      7.9768896395021311      5.2105499999999996
   285   2      7.6015128506701561      7.9768896395021311      2.9496899999999999
   286   2      7.6015128506701561      7.9768896395021311      7.0523499999999997
   287   2      7.6015128506701561      29.186050263612174                 5.06358
   288   2      7.7744794338563779      31.624923676707017                12.30396
   289   3      7.7751661600902962      10.417134623623078                12.45093
   290   2      7.7751661600902962      10.417134623623078                10.19007
   291   2      7.7751661600902962      10.417134623623078      14.292730000000001
   292   2      7.7892045376091836      32.001425567697581                 5.06358
   293   1      7.7892045376091845      10.792264943587536      3.0874199999999998
   294   1      7.7892045376091845      10.792264943587536      7.1900700000000004
   295   1      7.9615794073691895      7.6004037407663327                 10.3278
   296   1      7.9615794073691895      7.6004037407663327                14.43045
   297   2      7.9622661336031078      28.809554016946823                12.30396
   298   3      7.9768962245482102       13.60764024767294      5.2105499999999996
   299   2      7.9768962245482102       13.60764024767294      2.9496899999999999
   300   2      7.9768962245482102       13.60764024767294      7.0523499999999997
   301   2      7.9768962245482111      34.816800871782988                 5.06358
   302   3       8.149366107115922      4.7850340810061374                12.45093
   303   2       8.149366107115922      4.7850340810061374                10.19007
   304   2       8.149366107115922      4.7850340810061374      14.292730000000001
   305   2       8.150052833349843      25.994184357186629                12.30396
   306   2      8.1645879114872386      37.632176175868388                 5.06358
   307   1      8.1645879114872386      16.423015551758343      3.0874199999999998
   308   1      8.1645879114872386      16.423015551758343      7.1900700000000004
   309   1      8.3371452810957098       1.969657836199866                 10.3278
   310   1      8.3371452810957098       1.969657836199866                14.43045
   311   2      8.3378329480504991      23.178822223193386                12.30396
   312   3      8.3522795984262643       19.23839085584375      5.2105499999999996
   313   2      8.3522795984262643       19.23839085584375      2.9496899999999999
   314   2      8.3522795984262643       19.23839085584375      7.0523499999999997
   315   2      8.3522795984262679      40.447551479953795                 5.06358
   316   3      8.5249244550754959       41.57260283961368                12.45093
   317   2      8.5249244550754959       41.57260283961368                10.19007
   318   2      8.5249244550754959       41.57260283961368      14.292730000000001
   319   2      8.5256121220302852      20.363445978387112                12.30396
   320   2      8.5399647003192118     0.84461306158605498                 5.06358
   321   1      8.5399712853652918      22.053766159929154      3.0874199999999998
   322   1      8.5399712853652918      22.053766159929154      7.1900700000000004
   323   1       8.712711154822232      38.757233179853493                 10.3278
   324   1       8.712711154822232      38.757233179853493                14.43045
   325   2       8.713391296010073      17.549451652536494                12.30396
   326   3      8.7276629723043193      24.869141464014557      5.2105499999999996
   327   2      8.7276629723043193      24.869141464014557      2.9496899999999999
   328   2      8.7276629723043193      24.869141464014557      7.0523499999999997
   329   2      8.7276563872582411        3.65998836567146                 5.06358
   330   3      8.9004912695228864      35.941871045860239                12.45093
   331   2      8.9004912695228864      35.941871045860239                10.19007
   332   2      8.9004912695228864      35.941871045860239      14.292730000000001
   333   2      8.9011779957568056      14.734081992776302                12.30396
   334   2      8.9153480741972668      6.4753636697568631                 5.06358
   335   1       8.915354659243345      27.684516768099961      3.0874199999999998
   336   1       8.915354659243345      27.684516768099961      7.1900700000000004
   337   1      9.0882779692696189      33.126501386100045                 10.3278
   338   1      9.0882779692696189      33.126501386100045                14.43045
   339   2      9.0889646955035381      11.918712333016108                12.30396
   340   3      9.1030463461823725      30.499892072185364      5.2105499999999996
   341   2      9.1030463461823725      30.499892072185364      2.9496899999999999
   342   2      9.1030463461823725      30.499892072185364      7.0523499999999997
   343   2      9.1030463461823725      9.2907314480753218                 5.06358
   344   2      9.2753704170154858      9.1019748651132826                12.30396
   345   3       9.276057143249405      30.311125141293772                12.45093
   346   2       9.276057143249405      30.311125141293772                10.19007
   347   2       9.276057143249405      30.311125141293772      14.292730000000001
   348   2      9.2907380331213982      12.106106752160724                 5.06358
   349   1         9.2907380331214      33.315267376270768      3.0874199999999998
   350   1         9.2907380331214      33.315267376270768      7.1900700000000004
   351   2      9.4631571167622184       6.286605205353089                12.30396
   352   1      9.4638372579500611      27.495763007300528                 10.3278
   353   1      9.4638372579500611      27.495763007300528                14.43045
   354   3      9.4784297200604275      36.130642680356175      5.2105499999999996
   355   2      9.4784297200604275      36.130642680356175      2.9496899999999999
   356   2      9.4784297200604275      36.130642680356175      7.0523499999999997
   357   2      9.4784297200604275      14.921482056246129                 5.06358