(written by ASE)

1190 atoms
3 atom types

0.0      36.789477468726616  xlo xhi
0.0      36.789477468726616  ylo yhi
0.0      61.480760591600003  zlo zhi

Masses

     1       137.3269999646734 # Ba
     2      15.998999995884349 # O
     3      47.866999987686484 # Ti

Atoms # atomic

     1   2     0.09386580909813283      13.318326146024594                12.30396
     2   3    0.094632658266522701      31.713062543857053                12.45093
     3   2    0.094632658266522701      31.713062543857053                10.19007
     4   2    0.094632658266522701      31.713062543857053      14.292730000000001
     5   3     0.10820816631681439      23.480342331747259      5.2105499999999996
     6   2     0.10820816631681439      23.480342331747259      2.9496899999999999
     7   2     0.10820816631681439      23.480342331747259      7.0523499999999997
     8   2     0.10820816631681306      5.0855994260010631                 5.06358
     9   2     0.31070515612450489       3.147120786108732                12.30396
    10   1     0.31146441272687081       21.54186911511637                 10.3278
    11   1     0.31146441272687081       21.54186911511637                14.43045
    12   2     0.32461690638441537       15.25681020917837                 5.06358
    13   1     0.32461690638441648      33.651553114924567      3.0874199999999998
    14   1     0.32461690638441648      33.651553114924567      7.1900700000000004
    15   3     0.52676789211188635      11.370667009157376                12.45093
    16   2     0.52676789211188635      11.370667009157376                10.19007
    17   2     0.52676789211188635      11.370667009157376      14.292730000000001
    18   2     0.52753474128027589      29.765403406989837                12.30396
    19   3     0.54102564645201767      7.0332780866094833      5.2105499999999996
    20   2     0.54102564645201767      7.0332780866094833      2.9496899999999999
    21   2     0.54102564645201767      7.0332780866094833      7.0523499999999997
    22   2     0.54102564645201845      25.428020992355677                 5.06358
    23   1     0.74359747726765679      1.1994638185460935                 10.3278
    24   1     0.74359747726765679      1.1994638185460935                14.43045
    25   2       0.744364326436046       19.59420021637855                12.30396
    26   2      0.7574343865196197      35.599231775532978                 5.06358
    27   1     0.75743438651961981       17.20448886978679      3.0874199999999998
    28   1     0.75743438651961981       17.20448886978679      7.1900700000000004
    29   2     0.95966997512564045      9.4230078722901602                12.30396
    30   3      0.9604368242940301      27.817744270122617                12.45093
    31   2      0.9604368242940301      27.817744270122617                10.19007
    32   2      0.9604368242940301      27.817744270122617      14.292730000000001
    33   3     0.97384312658722316      27.375699652964098      5.2105499999999996
    34   2     0.97384312658722316      27.375699652964098      2.9496899999999999
    35   2     0.97384312658722316      27.375699652964098      7.0523499999999997
    36   2      0.9738431265872225      8.9809567472179044                 5.06358
    37   2      1.1764973909768328       36.04128073130066                12.30396
    38   1      1.1772664094497995      17.646541079511334                 10.3278
    39   1      1.1772664094497995      17.646541079511334                14.43045
    40   2      1.1902518666548245      19.152167530395211                 5.06358
    41   1      1.1902421047842224     0.75742679395359602      3.0874199999999998
    42   1      1.1902421047842224     0.75742679395359602      7.1900700000000004
    43   3      1.3925601269642143      7.4753411428569194                12.45093
    44   2      1.3925601269642143      7.4753411428569194                10.19007
    45   2      1.3925601269642143      7.4753411428569194      14.292730000000001
    46   2      1.3933291454371817       25.87008730255998                12.30396
    47   3      1.4066606067224268      10.928635407826324      5.2105499999999996
    48   2      1.4066606067224268      10.928635407826324      2.9496899999999999
    49   2      1.4066606067224268      10.928635407826324      7.0523499999999997
    50   2      1.4066606067224279      29.323378313572519                 5.06358
    51   1      1.6093994739905868      34.093621594433444                 10.3278
    52   1      1.6093994739905868      34.093621594433444                14.43045
    53   2      1.6101587305929521      15.698884111948697                12.30396
    54   2      1.6230595849194271      2.7051054545620166                 5.06358
    55   1      1.6230693467900295      21.099846191003632      3.0874199999999998
    56   1      1.6230693467900295      21.099846191003632      7.1900700000000004
    57   2      1.8254622099779678      5.5276820059897025                12.30396
    58   3      1.8262290591463572       23.92241840382216                12.45093
    59   2      1.8262290591463572       23.92241840382216                10.19007
    60   2      1.8262290591463572       23.92241840382216      14.292730000000001
    61   3      1.8394780868576319      31.271056974180937      5.2105499999999996
    62   2      1.8394780868576319      31.271056974180937      2.9496899999999999
    63   2      1.8394780868576319      31.271056974180937      7.0523499999999997
    64   2      1.8394780868576317      12.876314068434747                 5.06358
    65   2      2.0422917951337385      32.145964626870807                12.30396
    66   1      2.0430608136067057      13.751224975081481                 10.3278
    67   1      2.0430608136067057      13.751224975081481                14.43045
    68   2      2.0558868269252342      23.047524851612053                 5.06358
    69   1      2.0558770650546316      4.6527841151704372      3.0874199999999998
    70   1      2.0558770650546316      4.6527841151704372      7.1900700000000004
    71   3      2.2583642929917218       3.580022869122486                12.45093
    72   2      2.2583642929917218       3.580022869122486                10.19007
    73   2      2.2583642929917218       3.580022869122486      14.292730000000001
    74   2      2.2591311421601108      21.974759266954944                12.30396
    75   3       2.272295566992836      14.823992729043166      5.2105499999999996
    76   2       2.272295566992836      14.823992729043166      2.9496899999999999
    77   2       2.272295566992836      14.823992729043166      7.0523499999999997
    78   2      2.2722955669928377      33.218735634789361                 5.06358
    79   1      2.4751938781474925      30.198305490003587                 10.3278
    80   1      2.4751938781474925      30.198305490003587                14.43045
    81   2      2.4759628966204592      11.803565838214263                12.30396
    82   2      2.4886945451898361      6.6004627757788574                 5.06358
    83   1      2.4887043070604382      24.995203512220471      3.0874199999999998
    84   1      2.4887043070604382      24.995203512220471      7.1900700000000004
    85   2      2.6912566141348733      1.6323659015598471                12.30396
    86   3      2.6920234633032631      20.027102299392308                12.45093
    87   2      2.6920234633032631      20.027102299392308                10.19007
    88   2      2.6920234633032631      20.027102299392308      14.292730000000001
    89   3      2.7051130471280409      35.166414295397779      5.2105499999999996
    90   2      2.7051130471280409      35.166414295397779      2.9496899999999999
    91   2      2.7051130471280409      35.166414295397779      7.0523499999999997
    92   2      2.7051130471280405      16.771671389651583                 5.06358
    93   2      2.9080959611612469      28.250646353136375                12.30396
    94   1      2.9088552177636116      9.8559088706516249                 10.3278
    95   1      2.9088552177636116      9.8559088706516249                14.43045
    96   2      2.9215217871956431      26.942882172828892                 5.06358
    97   1      2.9215120253250411      8.5481414363872794      3.0874199999999998
    98   1      2.9215120253250411      8.5481414363872794      7.1900700000000004
    99   3      3.1241565278440504       36.47418281431441                12.45093
   100   2      3.1241565278440504       36.47418281431441                10.19007
   101   2      3.1241565278440504       36.47418281431441      14.292730000000001
   102   2      3.1249255463170162      18.079443162525088                12.30396
   103   3      3.1379305272632454      18.719350050260008      5.2105499999999996
   104   2      3.1379305272632454      18.719350050260008      2.9496899999999999
   105   2      3.1379305272632454      18.719350050260008      7.0523499999999997
   106   2      3.1379207653926433     0.32460931381839142                 5.06358
   107   2      3.3402279410497435      7.9067149507953411                12.30396
   108   1      3.3409861129998202      26.302979623703131                 10.3278
   109   1      3.3409861129998202      26.302979623703131                14.43045
   110   2      3.3543295054602456      10.495820096995699                 5.06358
   111   1      3.3543392673308476      28.890560833437313      3.0874199999999998
   112   1      3.3543392673308476      28.890560833437313      7.1900700000000004
   113   2      3.5570586108578039      34.526523677447202                12.30396
   114   3      3.5578276293307702      16.131784025657872                12.45093
   115   2      3.5578276293307702      16.131784025657872                10.19007
   116   2      3.5578276293307702      16.131784025657872      14.292730000000001
   117   3      3.5707382455278478      2.2722879744268121      5.2105499999999996
   118   2      3.5707382455278478      2.2722879744268121      2.9496899999999999
   119   2      3.5707382455278478      2.2722879744268121      7.0523499999999997
   120   2      3.5707480073984499      20.667028710868429                 5.06358
   121   1      3.7731180928883172      5.9590482213621003                 10.3278
   122   1      3.7731180928883172      5.9590482213621003                14.43045
   123   2      3.7738881960135742      24.355320486835915                12.30396
   124   2      3.7871567474660517      30.838239494045734                 5.06358
   125   1        3.78714698559545       12.44349875760412      3.0874199999999998
   126   1        3.78714698559545       12.44349875760412      7.1900700000000004
   127   3      3.9899606938715579      32.578864540579985                12.45093
   128   2      3.9899606938715579      32.578864540579985                10.19007
   129   2      3.9899606938715579      32.578864540579985      14.292730000000001
   130   2      3.9907199504739226      14.184127058095234                12.30396
   131   3      4.0035654875336544       22.61470737147685      5.2105499999999996
   132   2      4.0035654875336544       22.61470737147685      2.9496899999999999
   133   2      4.0035654875336544       22.61470737147685      7.0523499999999997
   134   2      4.0035557256630518      4.2199666350352318                 5.06358
   135   2      4.2060201759020712      4.0113890844948843                12.30396
   136   1      4.2067902790273282      22.407661349968699                 10.3278
   137   1      4.2067902790273282      22.407661349968699                14.43045
   138   2       4.219964465730655      14.391177418212539                 5.06358
   139   1      4.2199742276012575      32.785918154654155      3.0874199999999998
   140   1      4.2199742276012575      32.785918154654155      7.1900700000000004
   141   2      4.4228508457101308      30.631197811146741                12.30396
   142   3      4.4236198641830979      12.236458159357415                12.45093
   143   2      4.4236198641830979      12.236458159357415                10.19007
   144   2      4.4236198641830979      12.236458159357415      14.292730000000001
   145   3      4.4363732057982572      6.1676452956436529      5.2105499999999996
   146   2      4.4363732057982572      6.1676452956436529      2.9496899999999999
   147   2      4.4363732057982572      6.1676452956436529      7.0523499999999997
   148   2      4.4363829676688589      24.562386032085268                 5.06358
   149   1      4.6389222589158248      2.0637299476276669                 10.3278
   150   1      4.6389222589158248      2.0637299476276669                14.43045
   151   2      4.6396826001704801      20.460004382406058                12.30396
   152   2      4.6527917077364602      34.733596815262572                 5.06358
   153   1      4.6527819458658586       16.33885607882096      3.0874199999999998
   154   1      4.6527819458658586       16.33885607882096      7.1900700000000004
   155   3      4.8557529287238852      28.683538674279525                12.45093
   156   2      4.8557529287238852      28.683538674279525                10.19007
   157   2      4.8557529287238852      28.683538674279525      14.292730000000001
   158   2      4.8565219471968515      10.288799022490199                12.30396
   159   3      4.8692004478040634      26.510064692693689      5.2105499999999996
   160   2      4.8692004478040634      26.510064692693689      2.9496899999999999
   161   2      4.8692004478040634      26.510064692693689      7.0523499999999997
   162   2      4.8691906859334617      8.1153239562520731                 5.06358
   163   2      5.0718243419295792     0.11607081076045007                12.30396
   164   1      5.0725846831842336      18.512345245538842                 10.3278
   165   1      5.0725846831842336      18.512345245538842                14.43045
   166   2       5.085599426001064      18.286534739429381                 5.06358
   167   1      5.0856091878716656       36.68127547587099      3.0874199999999998
   168   1      5.0856091878716656       36.68127547587099      7.1900700000000004
   169   3      5.2878849086123827      8.3396072719384922                12.45093
   170   2      5.2878849086123827      8.3396072719384922                10.19007
   171   2      5.2878849086123827      8.3396072719384922      14.292730000000001
   172   2      5.2886550117376396      26.735879537412309                12.30396
   173   3      5.3020081660686662      10.063002616860494      5.2105499999999996
   174   2      5.3020081660686662      10.063002616860494      2.9496899999999999
   175   2      5.3020081660686662      10.063002616860494      7.0523499999999997
   176   2      5.3020179279392687       28.45774335330211                 5.06358
   177   1      5.5047144937681534      34.957889892819601                 10.3278
   178   1      5.5047144937681534      34.957889892819601                14.43045
   179   2      5.5054845968934085      16.564676346801022                12.30396
   180   2      5.5184169061362676      1.8394704942916076                 5.06358
   181   1      5.5184169061362685      20.234213400037802      3.0874199999999998
   182   1      5.5184169061362685      20.234213400037802      7.1900700000000004
   183   2      5.7207869916261354      6.3919481350712752                12.30396
   184   3      5.7215473328807906      24.788222569849669                12.45093
   185   2      5.7215473328807906      24.788222569849669                10.19007
   186   2      5.7215473328807906      24.788222569849669      14.292730000000001
   187   3      5.7348354080744723      30.405422013910528      5.2105499999999996
   188   2      5.7348354080744723      30.405422013910528      2.9496899999999999
   189   2      5.7348354080744723      30.405422013910528      7.0523499999999997
   190   2      5.7348256462038707      12.010681277468915                 5.06358
   191   2      5.9376165767819078      33.010230755952385                12.30396
   192   1      5.9383769180365613      14.617019379238386                 10.3278
   193   1      5.9383769180365613      14.617019379238386                14.43045
   194   2      5.9512343862714729      22.181892060646224                 5.06358
   195   1      5.9512343862714721      3.7871491549000278      3.0874199999999998
   196   1      5.9512343862714721      3.7871491549000278      7.1900700000000004
   197   3      6.1536793127692881       4.444291167508637                12.45093
   198   2      6.1536793127692881       4.444291167508637                10.19007
   199   2      6.1536793127692881       4.444291167508637      14.292730000000001
   200   2      6.1544494158945451      22.840563432982453                12.30396
   201   3      6.1676431263390752      13.958359938077335      5.2105499999999996
   202   2      6.1676431263390752      13.958359938077335      2.9496899999999999
   203   2      6.1676431263390752      13.958359938077335      7.0523499999999997
   204   2      6.1676528882096777      32.353100674518949                 5.06358
   205   1      6.3705186597956613      31.062571619085162                 10.3278
   206   1      6.3705186597956613      31.062571619085162                14.43045
   207   2      6.3712790010503149       12.66936024237117                12.30396
   208   2      6.3840518664066765      5.7348278155084484                 5.06358
   209   1      6.3840518664066774      24.129570721254641      3.0874199999999998
   210   1      6.3840518664066774      24.129570721254641      7.1900700000000004
   211   2      6.5865813957830417      2.4966320306414205                12.30396
   212   3        6.58734932960372      20.892894534244633                12.45093
   213   2        6.58734932960372      20.892894534244633                10.19007
   214   2        6.58734932960372      20.892894534244633      14.292730000000001
   215   3      6.6004703683448813      34.300779335127366      5.2105499999999996
   216   2      6.6004703683448813      34.300779335127366      2.9496899999999999
   217   2      6.6004703683448813      34.300779335127366      7.0523499999999997
   218   2      6.6004606064742797      15.906038598685754                 5.06358
   219   2      6.8034088116342346      29.114904889651921                12.30396
   220   1      6.8041810840640684      10.721701105503952                 10.3278
   221   1      6.8041810840640684      10.721701105503952                14.43045
   222   2      6.8168693465418819      26.077249381863062                 5.06358
   223   1       6.816869346541881      7.6825064761168695      3.0874199999999998
   224   1       6.816869346541881      7.6825064761168695      7.1900700000000004
   225   3      7.0194834787967961     0.54897289377420377                12.45093
   226   2      7.0194834787967961     0.54897289377420377                10.19007
   227   2      7.0194834787967961     0.54897289377420377      14.292730000000001
   228   2      7.0202416507468719      18.945237566681996                12.30396
   229   3      7.0332780866094842      17.853717259294175      5.2105499999999996
   230   2      7.0332780866094842      17.853717259294175      2.9496899999999999
   231   2      7.0332780866094842      17.853717259294175      7.0523499999999997
   232   2      7.0332878484800858      36.248457995735791                 5.06358
   233   1      7.2363108946479882      27.167245752784705                 10.3278
   234   1      7.2363108946479882      27.167245752784705                14.43045
   235   2      7.2386071035439983      8.7587266783147388                12.30396
   236   2      7.2496868266770855      9.6301851367252898                 5.06358
   237   1      7.2496868266770873      28.024928042471483      3.0874199999999998
   238   1      7.2496868266770873      28.024928042471483      7.1900700000000004
   239   2       7.452383392505971      35.390789806528765                12.30396
   240   3      7.4531437337606254       16.99757842981478                12.45093
   241   2      7.4531437337606254       16.99757842981478                10.19007
   242   2      7.4531437337606254       16.99757842981478      14.292730000000001
   243   3      7.4660955667446887      1.4066530141564031      5.2105499999999996
   244   2      7.4660955667446887      1.4066530141564031      2.9496899999999999
   245   2      7.4660955667446887      1.4066530141564031      7.0523499999999997
   246   2      7.4660955667446895      19.801395919902596                 5.06358
   247   1      7.6684461284933532      6.8248502180850306                 10.3278
   248   1      7.6684461284933532      6.8248502180850306                14.43045
   249   2      7.6692129776617426      25.219586615917489                12.30396
   250   2      7.6825043068122909      29.972606703079901                 5.06358
   251   1      7.6825043068122909      11.577863797333711      3.0874199999999998
   252   1      7.6825043068122909      11.577863797333711      7.1900700000000004
   253   3      7.8852735443445461      33.443123077095535                12.45093
   254   2      7.8852735443445461      33.443123077095535                10.19007
   255   2      7.8852735443445461      33.443123077095535      14.292730000000001
   256   2       7.886045816774379       15.04991929294756                12.30396
   257   3       7.898913046879894      21.749074580511017      5.2105499999999996
   258   2       7.898913046879894      21.749074580511017      2.9496899999999999
   259   2       7.898913046879894      21.749074580511017      7.0523499999999997
   260   2      7.8989130468798932      3.3543316747648233                 5.06358
   261   2      8.1013482115071067      4.8771910812178136                12.30396
   262   1      8.1021052988048936      23.271929648354849                 10.3278
   263   1      8.1021052988048936      23.271929648354849                14.43045
   264   2      8.1153217869474954       13.52554245794213                 5.06358
   265   1      8.1153217869474972      31.920285363688325      3.0874199999999998
   266   1      8.1153217869474972      31.920285363688325      7.1900700000000004
   267   2      8.3181756273583005      31.495463940228319                12.30396
   268   3      8.3189381379175309      13.102262325384922                12.45093
   269   2      8.3189381379175309      13.102262325384922                10.19007
   270   2      8.3189381379175309      13.102262325384922      14.292730000000001
   271   3      8.3317305270150985       5.302010335373244      5.2105499999999996
   272   2      8.3317305270150985       5.302010335373244      2.9496899999999999
   273   2      8.3317305270150985       5.302010335373244      7.0523499999999997
   274   2      8.3317305270150985      23.696753241119435                 5.06358
   275   1      8.5342383633456791      2.9295243517845728                 10.3278
   276   1      8.5342383633456791      2.9295243517845728                14.43045
   277   2       8.535007381818648      21.324270511487633                12.30396
   278   2      8.5481392670826999      33.867964024296739                 5.06358
   279   1      8.5481392670826999      15.473221118550549      3.0874199999999998
   280   1      8.5481392670826999      15.473221118550549      7.1900700000000004
   281   3      8.7510777103720532        29.5478048033611                12.45093
   282   2      8.7510777103720532        29.5478048033611                10.19007
   283   2      8.7510777103720532        29.5478048033611      14.292730000000001
   284   2      8.7518402209312853      11.154603188517706                12.30396
   285   3       8.764548007150303      25.644431901727856      5.2105499999999996
   286   2       8.764548007150303      25.644431901727856      2.9496899999999999
   287   2       8.764548007150303      25.644431901727856      7.0523499999999997
   288   2       8.764548007150303      7.2496889959816651                 5.06358
   289   2      8.9671404463594335     0.98186521491735579                12.30396
   290   1      8.9679072955278247      19.376601612749816                 10.3278
   291   1      8.9679072955278247      19.376601612749816                14.43045
   292   2      8.9809567472179044      17.420899779158972                 5.06358
   293   1      8.9809567472179044      35.815642684905164      3.0874199999999998
   294   1      8.9809567472179044      35.815642684905164      7.1900700000000004
   295   3      9.1832031823468157       9.205411437966001                12.45093
   296   2      9.1832031823468157       9.205411437966001                10.19007
   297   2      9.1832031823468157       9.205411437966001      14.292730000000001
   298   2      9.1839700315152051      27.600147835798456                12.30396
   299   3      9.1973654872855075      9.1973676565900853      5.2105499999999996
   300   2      9.1973654872855075      9.1973676565900853      2.9496899999999999
   301   2      9.1973654872855075      9.1973676565900853      7.0523499999999997
   302   2      9.1973654872855075      27.592110562336277                 5.06358
   303   1       9.400040360068612       35.82368212767193                 10.3278
   304   1       9.400040360068612       35.82368212767193                14.43045
   305   2      9.4007996166709749      17.428944645187176                12.30396
   306   2      9.4137742273531089     0.97383553402119816                 5.06358
   307   1      9.4137742273531089      19.368578439767393      3.0874199999999998
   308   1      9.4137742273531089      19.368578439767393      7.1900700000000004
   309   2      9.6161052653605701      7.2577523010987832                12.30396
   310   3      9.6168721145289595      25.652488698931244                12.45093
   311   2      9.6168721145289595      25.652488698931244                10.19007
   312   2      9.6168721145289595      25.652488698931244      14.292730000000001
   313   3       9.630182967420712      29.539789222944698      5.2105499999999996
   314   2       9.630182967420712      29.539789222944698      2.9496899999999999
   315   2       9.630182967420712      29.539789222944698      7.0523499999999997
   316   2       9.630182967420712      11.145046317198506                 5.06358
   317   2      9.8329326812117621      33.876025160109279                12.30396
   318   1      9.8337016996847293       15.48128550831996                 10.3278
   319   1      9.8337016996847293       15.48128550831996                14.43045
   320   2      9.8465917074883134      21.316257100375815                 5.06358
   321   1      9.8465917074883134      2.9215141946296184      3.0874199999999998
   322   1      9.8465917074883134      2.9215141946296184      7.1900700000000004
   323   3      10.049005179069745      5.3100834023609647                12.45093
   324   2      10.049005179069745      5.3100834023609647                10.19007
   325   2      10.049005179069745      5.3100834023609647      14.292730000000001
   326   2      10.049774197542714      23.704829562064027                12.30396
   327   3      10.063000447555916      13.092724977806926      5.2105499999999996
   328   2      10.063000447555916      13.092724977806926      2.9496899999999999
   329   2      10.063000447555916      13.092724977806926      7.0523499999999997
   330   2      10.063000447555916      31.487467883553123                 5.06358
   331   1      10.265834764225517      31.928366023242067                 10.3278
   332   1      10.265834764225517      31.928366023242067                14.43045
   333   2      10.266603782698482      13.533626371452742                12.30396
   334   2      10.279409187623518      4.8691928552380386                 5.06358
   335   1      10.279409187623518      23.263935760984232      3.0874199999999998
   336   1      10.279409187623518      23.263935760984232      7.1900700000000004
   337   2      10.481897500212897      3.3624264347983259                12.30396
   338   3      10.482664349381286      21.757162832630783                12.45093
   339   2      10.482664349381286      21.757162832630783                10.19007
   340   2      10.482664349381286      21.757162832630783      14.292730000000001
   341   3      10.495817927691121      33.435146544161533      5.2105499999999996
   342   2      10.495817927691121      33.435146544161533      2.9496899999999999
   343   2      10.495817927691121      33.435146544161533      7.0523499999999997
   344   2      10.495817927691121      15.040403638415345                 5.06358
   345   2      10.698736847239271       29.98070688637485                12.30396
   346   1      10.699496103841636      11.585969403890102                 10.3278
   347   1      10.699496103841636      11.585969403890102                14.43045
   348   2      10.712226667758722      25.211614421592653                 5.06358
   349   1      10.712226667758722      6.8168715158464597      3.0874199999999998
   350   1      10.712226667758722      6.8168715158464597      7.1900700000000004
   351   3      10.914799583226651      1.4147672979311097                12.45093
   352   2      10.914799583226651      1.4147672979311097                10.19007
   353   2      10.914799583226651      1.4147672979311097      14.292730000000001
   354   2      10.915566432395041      19.809503695763567                12.30396
   355   3      10.928635407826325      16.988082299023766      5.2105499999999996
   356   2      10.928635407826325      16.988082299023766      2.9496899999999999
   357   2      10.928635407826325      16.988082299023766      7.0523499999999997