(written by ASE)

854 atoms
3 atom types

0.0      31.165857034249466  xlo xhi
0.0      31.165857034249466  ylo yhi
0.0      61.480760591600003  zlo zhi

Masses

     1       137.3269999646734 # Ba
     2      15.998999995884349 # O
     3      47.866999987686484 # Ti

Atoms # atomic

     1   1     0.12092059014622566      29.760216336876297                 10.3278
     2   1     0.12092059014622566      29.760216336876297                14.43045
     3   2      0.1212265982892661      14.177291968216894                12.30396
     4   3      0.1277283110522574      16.987943472447036      5.2105499999999996
     5   2      0.1277283110522574      16.987943472447036      2.9496899999999999
     6   2      0.1277283110522574      16.987943472447036      7.0523499999999997
     7   2     0.12772831105225779      1.4050114215748348                 5.06358
     8   3     0.37643866995311037      26.950190932989031                12.45093
     9   2     0.37643866995311037      26.950190932989031                10.19007
    10   2     0.37643866995311037      26.950190932989031      14.292730000000001
    11   2     0.37675107994014567      11.367258882116829                12.30396
    12   2     0.38318621352557269      4.2150483487812975                 5.06358
    13   1     0.38318621352557342      19.797980399653497      3.0874199999999998
    14   1     0.38318621352557342      19.797980399653497      7.1900700000000004
    15   1     0.63194906754719726      24.140159127257764                 10.3278
    16   1     0.63194906754719726      24.140159127257764                14.43045
    17   2     0.63226147753423267      8.5578518963596366                12.30396
    18   3     0.63864411599888771      22.608017326859958      5.2105499999999996
    19   2     0.63864411599888771      22.608017326859958      2.9496899999999999
    20   2     0.63864411599888771      22.608017326859958      7.0523499999999997
    21   2     0.63864411599888748      7.0250852759877587                 5.06358
    22   3      0.8874594651412836      21.330127321526501                12.45093
    23   2      0.8874594651412836      21.330127321526501                10.19007
    24   2      0.8874594651412836      21.330127321526501      14.292730000000001
    25   2     0.88777187512831979      5.7478200906283723                12.30396
    26   2      0.8941020184722025      9.8351222031942207                 5.06358
    27   1     0.89410201847220261      25.418054254066419      3.0874199999999998
    28   1     0.89410201847220261      25.418054254066419      7.1900700000000004
    29   2      1.1426651349611305      2.9371698667670318                12.30396
    30   1      1.1429839467921623      18.520094235426438                 10.3278
    31   1      1.1429839467921623      18.520094235426438                14.43045
    32   3      1.1495599209455174      28.228091181272884      5.2105499999999996
    33   2      1.1495599209455174      28.228091181272884      2.9496899999999999
    34   2      1.1495599209455174      28.228091181272884      7.0523499999999997
    35   2      1.1495599209455174      12.645159130400685                 5.06358
    36   2      1.3981819343992141      0.1271303788229711                12.30396
    37   3      1.3984943443862516      15.710062429695171                12.45093
    38   2      1.3984943443862516      15.710062429695171                10.19007
    39   2      1.3984943443862516      15.710062429695171      14.292730000000001
    40   2      1.4050178234188317      15.455196057607147                 5.06358
    41   1      1.4050178234188306      31.038128108479349      3.0874199999999998
    42   1      1.4050178234188306      31.038128108479349      7.1900700000000004
    43   2       1.653692331993303      28.482962674836106                12.30396
    44   1      1.6540047419803381      12.900030623963906                 10.3278
    45   1      1.6540047419803381      12.900030623963906                14.43045
    46   3      1.6604757258921465      2.6823009339414088      5.2105499999999996
    47   2      1.6604757258921465      2.6823009339414088      2.9496899999999999
    48   2      1.6604757258921465      2.6823009339414088      7.0523499999999997
    49   2      1.6604757258921465      18.265232984813611                 5.06358
    50   2      1.9092027295873895      25.672930869104842                12.30396
    51   3      1.9095228217872213      10.090005220076637                12.45093
    52   2      1.9095228217872213      10.090005220076637                10.19007
    53   2      1.9095228217872213      10.090005220076637      14.292730000000001
    54   2      1.9159336283654609      21.075269912020072                 5.06358
    55   1      1.9159336283654609      5.4923378611478704      3.0874199999999998
    56   1      1.9159336283654609      5.4923378611478704      7.1900700000000004
    57   2      2.1647272112382692      22.862897783004776                12.30396
    58   1      2.1650396212253047      7.2805905521066503                 10.3278
    59   1      2.1650396212253047      7.2805905521066503                14.43045
    60   3      2.1713915308387763      8.3023747883543333      5.2105499999999996
    61   2      2.1713915308387763      8.3023747883543333      2.9496899999999999
    62   2      2.1713915308387763      8.3023747883543333      7.0523499999999997
    63   2      2.1713915308387768       23.88530683922653                 5.06358
    64   2      2.4202376088323567      20.052865977273509                12.30396
    65   3      2.4205500188193918      4.4705587463753842                12.45093
    66   2      2.4205500188193918      4.4705587463753842                10.19007
    67   2      2.4205500188193918      4.4705587463753842      14.292730000000001
    68   2      2.4268494333120918      26.695343766432995                 5.06358
    69   1      2.4268494333120918      11.112411715560796      3.0874199999999998
    70   1      2.4268494333120918      11.112411715560796      7.1900700000000004
    71   1      2.6754432786522031      1.6599085225140437                 10.3278
    72   1      2.6754432786522031      1.6599085225140437                14.43045
    73   2      2.6757480064264429      17.242834171542249                12.30396
    74   3       2.682307335785405      13.922448642767257      5.2105499999999996
    75   2       2.682307335785405      13.922448642767257      2.9496899999999999
    76   2       2.682307335785405      13.922448642767257      7.0523499999999997
    77   2       2.682307335785405      29.505380693639459                 5.06358
    78   3      2.9309600780902887      30.015733136314381                12.45093
    79   2      2.9309600780902887      30.015733136314381                10.19007
    80   2      2.9309600780902887      30.015733136314381      14.292730000000001
    81   2      2.9312660862333253      14.432808767654979                12.30396
    82   2      2.9377588364147238      1.1495612013143162                 5.06358
    83   1      2.9377652382587209      16.732485569973722      3.0874199999999998
    84   1      2.9377652382587209      16.732485569973722      7.1900700000000004
    85   1      3.1864704756843754      27.205701330583118                 10.3278
    86   1      3.1864704756843754      27.205701330583118                14.43045
    87   2      3.1867764838274137      11.622776961923714                12.30396
    88   3      3.1932231407320342      19.542522497180183      5.2105499999999996
    89   2      3.1932231407320342      19.542522497180183      2.9496899999999999
    90   2      3.1932231407320342      19.542522497180183      7.0523499999999997
    91   2      3.1932231407320346      3.9595904463079821                 5.06358
    92   3       3.441980873278462      24.395669524851851                12.45093
    93   2       3.441980873278462      24.395669524851851                10.19007
    94   2       3.441980873278462      24.395669524851851      14.292730000000001
    95   2      3.4422932832654975      8.8127374739796522                12.30396
    96   2      3.4486810432053496      6.7696273735144441                 5.06358
    97   1      3.4486810432053501      22.352559424386644      3.0874199999999998
    98   1      3.4486810432053501      22.352559424386644      7.1900700000000004
    99   1      3.6974912708725483      21.585637719120587                 10.3278
   100   1      3.6974912708725483      21.585637719120587                14.43045
   101   2      3.6978036808595851      6.0033304882224607                12.30396
   102   3       3.704138945678666      25.162596351593105      5.2105499999999996
   103   2       3.704138945678666      25.162596351593105      2.9496899999999999
   104   2       3.704138945678666      25.162596351593105      7.0523499999999997
   105   2      3.7041389456786655       9.579664300720907                 5.06358
   106   3      3.9530093506794324      18.775612315233317                12.45093
   107   2      3.9530093506794324      18.775612315233317                10.19007
   108   2      3.9530093506794324      18.775612315233317      14.292730000000001
   109   2      3.9533217606664679      3.1933050843351918                12.30396
   110   2      3.9595968481519792      12.389701227927368                 5.06358
   111   1      3.9595968481519792       27.97263327879957      3.0874199999999998
   112   1      3.9595968481519792       27.97263327879957      7.1900700000000004
   113   2      4.2082073382864822     0.38264845862985414                12.30396
   114   1      4.2085197482735177      15.965580509502052                 10.3278
   115   1      4.2085197482735177      15.965580509502052                14.43045
   116   3      4.2150547506252938      30.782670206006031      5.2105499999999996
   117   2      4.2150547506252938      30.782670206006031      2.9496899999999999
   118   2      4.2150547506252938      30.782670206006031      7.0523499999999997
   119   2      4.2150547506252938      15.199738155133833                 5.06358
   120   2       4.463724137724566      28.738473072430192                12.30396
   121   3      4.4640365477116033      13.155541021557994                12.45093
   122   2      4.4640365477116033      13.155541021557994                10.19007
   123   2      4.4640365477116033      13.155541021557994      14.292730000000001
   124   2      4.4705126530986083      18.009775082340294                 5.06358
   125   1      4.4705062512546121      2.4268507136808894      3.0874199999999998
   126   1      4.4705062512546121      2.4268507136808894      7.1900700000000004
   127   2      4.7192422175314492      25.928447668542923                12.30396
   128   1      4.7195546275184856      10.345515617670724                 10.3278
   129   1      4.7195546275184856      10.345515617670724                14.43045
   130   3      4.7259705555719238      5.2368799586745558      5.2105499999999996
   131   2      4.7259705555719238      5.2368799586745558      2.9496899999999999
   132   2      4.7259705555719238      5.2368799586745558      7.0523499999999997
   133   2      4.7259705555719229      20.819812009546755                 5.06358
   134   2      4.9747526151255368      23.118415862811659                12.30396
   135   3      4.9750650251125741      7.5354838119394607                12.45093
   136   2      4.9750650251125741      7.5354838119394607                10.19007
   137   2      4.9750650251125741      7.5354838119394607      14.292730000000001
   138   2      4.9814284580452393       23.62984893675322                 5.06358
   139   1      4.9814284580452393      8.0469168858810196      3.0874199999999998
   140   1      4.9814284580452393      8.0469168858810196      7.1900700000000004
   141   2      5.2302694145636224      20.308376374867599                12.30396
   142   1      5.2305754227066608      4.7260768261822674                 10.3278
   143   1      5.2305754227066608      4.7260768261822674                14.43045
   144   3      5.2368863605185529      10.856953813087481      5.2105499999999996
   145   2      5.2368863605185529      10.856953813087481      2.9496899999999999
   146   2      5.2368863605185529      10.856953813087481      7.0523499999999997
   147   2      5.2368863605185538      26.439885863959681                 5.06358
   148   2      5.4857874943705047      17.498350970980329                12.30396
   149   3      5.4860922221447446      1.9160373382382068                12.45093
   150   2      5.4860922221447446      1.9160373382382068                10.19007
   151   2      5.4860922221447446      1.9160373382382068      14.292730000000001
   152   2      5.4923442629918684      29.249922791166142                 5.06358
   153   1      5.4923442629918684      13.666990740293944      3.0874199999999998
   154   1      5.4923442629918684      13.666990740293944      7.1900700000000004
   155   1      5.7409854819775532      30.271251216121268                 10.3278
   156   1      5.7409854819775532      30.271251216121268                14.43045
   157   2      5.7412978919645923      14.688319165249064                12.30396
   158   3      5.7478021654651812      16.477027667500405      5.2105499999999996
   159   2      5.7478021654651812      16.477027667500405      2.9496899999999999
   160   2      5.7478021654651812      16.477027667500405      7.0523499999999997
   161   2      5.7477957636211858     0.89410329884100082                 5.06358
   162   3      5.9964958795716434      27.461219410389997                12.45093
   163   2      5.9964958795716434      27.461219410389997                10.19007
   164   2      5.9964958795716434      27.461219410389997      14.292730000000001
   165   2      5.9968082895586781      11.878287359517799                12.30396
   166   2      6.0032536660945004      3.7041402260474632                 5.06358
   167   1      6.0032600679384975      19.287064594706866      3.0874199999999998
   168   1      6.0032600679384975      19.287064594706866      7.1900700000000004
   169   1      6.2520126790097272      24.651179922445941                 10.3278
   170   1      6.2520126790097272      24.651179922445941                14.43045
   171   2      6.2523186871527665      9.0682555537865355                12.30396
   172   3      6.2587179704118121      22.097101521913331      5.2105499999999996
   173   2      6.2587179704118121      22.097101521913331      2.9496899999999999
   174   2      6.2587179704118121      22.097101521913331      7.0523499999999997
   175   2       6.258717970411813      6.5141694710411304                 5.06358
   176   3      6.5075307588166114      21.841154518558671                12.45093
   177   2      6.5075307588166114      21.841154518558671                10.19007
   178   2      6.5075307588166114      21.841154518558671      14.292730000000001
   179   2      6.5078367669596489      6.2582301498992665                12.30396
   180   2      6.5141758728851267      9.3242063982475916                 5.06358
   181   1      6.5141758728851267      24.907138449119792      3.0874199999999998
   182   1      6.5141758728851267      24.907138449119792      7.1900700000000004
   183   1      6.7630411564106963      19.031122712827408                 10.3278
   184   1      6.7630411564106963      19.031122712827408                14.43045
   185   2      6.7633535663977327      3.4488154819292784                12.30396
   186   3       6.769633775358443      27.717175376326253      5.2105499999999996
   187   2       6.769633775358443      27.717175376326253      2.9496899999999999
   188   2       6.769633775358443      27.717175376326253      7.0523499999999997
   189   2      6.7696337753584421      12.134243325454054                 5.06358
   190   3      7.0185515540047838      16.221090907096141                12.45093
   191   2      7.0185515540047838      16.221090907096141                10.19007
   192   2      7.0185515540047838      16.221090907096141      14.292730000000001
   193   2      7.0188639639918202     0.63878367619801368                12.30396
   194   2      7.0250916778317558      14.944280252660517                 5.06358
   195   1      7.0250916778317576      30.527212303532714      3.0874199999999998
   196   1      7.0250916778317576      30.527212303532714      7.1900700000000004
   197   2       7.273755943455833      28.993983470024276                12.30396
   198   1      7.2740696338116679      13.411065503208873                 10.3278
   199   1      7.2740696338116679      13.411065503208873                14.43045
   200   3      7.2805431784610741      2.1713928112075744      5.2105499999999996
   201   2      7.2805431784610741      2.1713928112075744      2.9496899999999999
   202   2      7.2805431784610741      2.1713928112075744      7.0523499999999997
   203   2      7.2805495803050704      17.754317179866977                 5.06358
   204   2      7.5292740232627171      26.183958066137013                12.30396
   205   3      7.5295800314057537      10.601033697477607                12.45093
   206   2      7.5295800314057537      10.601033697477607                10.19007
   207   2      7.5295800314057537      10.601033697477607      14.292730000000001
   208   2      7.5360074827783867      20.564354107073441                 5.06358
   209   1      7.5360010809343896      4.9814297384140378      3.0874199999999998
   210   1      7.5360010809343896      4.9814297384140378      7.1900700000000004
   211   2      7.7847844208568029      23.373926260405746                12.30396
   212   1      7.7850968308438375      7.7909942095335456                 10.3278
   213   1      7.7850968308438375      7.7909942095335456                14.43045
   214   3      7.7914653852517004      7.7914589834077033      5.2105499999999996
   215   2      7.7914653852517004      7.7914589834077033      2.9496899999999999
   216   2      7.7914653852517004      7.7914589834077033      7.0523499999999997
   217   2      7.7914653852516995      23.374391034279906                 5.06358
   218   2      8.0402948184508904      20.563894454674482                12.30396
   219   3      8.0406149106507208      4.9809688056462784                12.45093
   220   2      8.0406149106507208      4.9809688056462784                10.19007
   221   2      8.0406149106507208      4.9809688056462784      14.292730000000001
   222   2       8.046923287725015      26.184427961486367                 5.06358
   223   1       8.046923287725015      10.601495910614167      3.0874199999999998
   224   1       8.046923287725015      10.601495910614167      7.1900700000000004
   225   2      8.2958128982577737      17.753869050787213                12.30396
   226   1      8.2961253082448074      2.1715618198890865                 10.3278
   227   1      8.2961253082448074      2.1715618198890865                14.43045
   228   3      8.3023811901983287      13.411532837820628      5.2105499999999996
   229   2      8.3023811901983287      13.411532837820628      2.9496899999999999
   230   2      8.3023811901983287      13.411532837820628      7.0523499999999997
   231   2      8.3023811901983322      28.994464888692825                 5.06358
   232   2      8.5513296976958539      14.943829562843151                12.30396
   233   3      8.5516344254700982      30.527380031845428                12.45093
   234   2      8.5516344254700982      30.527380031845428                10.19007
   235   2      8.5516344254700982      30.527380031845428      14.292730000000001
   236   2      8.5578326908276487     0.63864539636768625                 5.06358
   237   1      8.5578390926716441      16.221569765027088      3.0874199999999998
   238   1      8.5578390926716441      16.221569765027088      7.1900700000000004
   239   1      8.8065276853029086      27.716729807984088                 10.3278
   240   1      8.8065276853029086      27.716729807984088                14.43045
   241   2      8.8068400952899442      12.133797757111887                12.30396
   242   3      8.8132969951449596      19.031606692233552      5.2105499999999996
   243   2      8.8132969951449596      19.031606692233552      2.9496899999999999
   244   2      8.8132969951449596      19.031606692233552      7.0523499999999997
   245   2      8.8132905933009642      3.4486823235741491                 5.06358
   246   3      9.0620457651097919      24.906704404096818                12.45093
   247   2      9.0620457651097919      24.906704404096818                10.19007
   248   2      9.0620457651097919      24.906704404096818      14.292730000000001
   249   2      9.0623581750968274      9.3237723532246193                12.30396
   250   2      9.0687484957742779      6.2587192507806106                 5.06358
   251   1      9.0687548976182732      21.841643619440017      3.0874199999999998
   252   1      9.0687548976182732      21.841643619440017      7.1900700000000004
   253   1      9.3175561627038768      22.096672598365554                 10.3278
   254   1      9.3175561627038768      22.096672598365554                14.43045
   255   2      9.3178685726909141      6.5137405474933541                12.30396
   256   3      9.3242128000915887      24.651680546646478      5.2105499999999996
   257   2      9.3242128000915887      24.651680546646478      2.9496899999999999
   258   2      9.3242128000915887      24.651680546646478      7.0523499999999997
   259   2      9.3242128000915887      9.0687484957742779                 5.06358
   260   3      9.5730729621419606      19.286633110421491                12.45093
   261   2      9.5730729621419606      19.286633110421491                10.19007
   262   2      9.5730729621419606      19.286633110421491      14.292730000000001
   263   2      9.5733789702850007      3.7037087417620893                12.30396
   264   2      9.5796707025649024      11.878785422980741                 5.06358
   265   1      9.5796707025649042      27.461717473852939      3.0874199999999998
   266   1      9.5796707025649042      27.461717473852939      7.1900700000000004
   267   1      9.8285833597360508      16.476601304690231                 10.3278
   268   1      9.8285833597360508      16.476601304690231                14.43045
   269   2      9.8288957697230845      0.8942940737921008                12.30396
   270   3      9.8351286050382214        30.2717544010594      5.2105499999999996
   271   2      9.8351286050382214        30.2717544010594      2.9496899999999999
   272   2      9.8351286050382214        30.2717544010594      7.0523499999999997
   273   2      9.8351286050382178        14.6888223501872                 5.06358
   274   3      10.084101439542932      13.666575900802961                12.45093
   275   2      10.084101439542932      13.666575900802961                10.19007
   276   2      10.084101439542932      13.666575900802961      14.292730000000001
   277   2      10.084406167317171      29.250126369805237                12.30396
   278   2      10.090586507511533      17.498859277393663                 5.06358
   279   1      10.090580105667538       1.915934908734261      3.0874199999999998
   280   1      10.090580105667538       1.915934908734261      7.1900700000000004
   281   2      10.339305828993981      26.439468463731096                12.30396
   282   1      10.339611837137019      10.856544095071696                 10.3278
   283   1      10.339611837137019      10.856544095071696                14.43045
   284   3      10.346038008140852      4.7259718359407223      5.2105499999999996
   285   2      10.346038008140852      4.7259718359407223      2.9496899999999999
   286   2      10.346038008140852      4.7259718359407223      7.0523499999999997
   287   2      10.346044409984847      20.308896204600128                 5.06358
   288   2      10.594816226588065      23.629436657999833                12.30396
   289   3      10.595122234731107      8.0465122893404288                12.45093
   290   2      10.595122234731107      8.0465122893404288                10.19007
   291   2      10.595122234731107      8.0465122893404288      14.292730000000001
   292   2      10.601502312458162      23.118933131806589                 5.06358
   293   1      10.601495910614167      7.5360087631471853      3.0874199999999998
   294   1      10.601495910614167      7.5360087631471853      7.1900700000000004
   295   2       10.85033430639495      20.819411254112566                12.30396
   296   1      10.850646716381986       5.236479203240366                 10.3278
   297   1      10.850646716381986       5.236479203240366                14.43045
   298   3      10.856960214931476      10.346038008140852      5.2105499999999996
   299   2      10.856960214931476      10.346038008140852      2.9496899999999999
   300   2      10.856960214931476      10.346038008140852      7.0523499999999997
   301   2      10.856960214931478       25.92897005901305                 5.06358
   302   2      11.105844703989039      18.009379448381303                12.30396
   303   3      11.106157113976073      2.4264473975091008                12.45093
   304   2      11.106157113976073      2.4264473975091008                10.19007
   305   2      11.106157113976073      2.4264473975091008      14.292730000000001
   306   2      11.112418117404793      28.739006986219515                 5.06358
   307   1      11.112418117404792      13.156074935347313      3.0874199999999998
   308   1      11.112418117404792      13.156074935347313      7.1900700000000004
   309   2      11.361355101583124      15.199347642650036                12.30396
   310   1      11.361673913414156      30.782896831283512                 10.3278
   311   1      11.361673913414156      30.782896831283512                14.43045
   312   3      11.367876019878107      15.966111862553776      5.2105499999999996
   313   2      11.367876019878107      15.966111862553776      2.9496899999999999
   314   2      11.367876019878107      15.966111862553776      7.0523499999999997
   315   2      11.367869618034112     0.38318749389437234                 5.06358
   316   2      11.616873181390009      12.389322238762768                12.30396
   317   3      11.617184311008247      27.972865025552249                12.45093
   318   2      11.617184311008247      27.972865025552249                10.19007
   319   2      11.617184311008247      27.972865025552249      14.292730000000001
   320   2      11.623327520507425      3.1932244211008336                 5.06358
   321   1      11.623333922351421      18.776148789760239      3.0874199999999998
   322   1      11.623333922351421      18.776148789760239      7.1900700000000004
   323   1      11.872077570841057      25.162214801690904                 10.3278
   324   1      11.872077570841057      25.162214801690904                14.43045
   325   2      11.872389980828093      9.5792827508187077                12.30396
   326   3      11.878791824824736        21.5861857169667      5.2105499999999996
   327   2      11.878791824824736        21.5861857169667      2.9496899999999999
   328   2      11.878791824824736        21.5861857169667      7.0523499999999997
   329   2      11.878785422980741       6.003261348307297                 5.06358
   330   3      12.127587968435144      22.352182995959641                12.45093
   331   2      12.127587968435144      22.352182995959641                10.19007
   332   2      12.127587968435144      22.352182995959641      14.292730000000001
   333   2      12.127900378422179      6.7692509450874407                12.30396
   334   2      12.134243325454054       8.813298275513759                 5.06358
   335   1      12.134249727298052      24.396222644173161      3.0874199999999998
   336   1      12.134249727298052      24.396222644173161      7.1900700000000004
   337   1      12.383098366029232      19.542151190228378                 10.3278
   338   1      12.383098366029232      19.542151190228378                14.43045
   339   2      12.383410776016266       3.959219139356176                12.30396
   340   3      12.389707629771367      27.206259571379626      5.2105499999999996
   341   2      12.389707629771367      27.206259571379626      2.9496899999999999
   342   2      12.389707629771367      27.206259571379626      7.0523499999999997
   343   2      12.389707629771365      11.623327520507424                 5.06358
   344   3      12.638622847680109      16.732118104128311                12.45093
   345   2      12.638622847680109      16.732118104128311                10.19007
   346   2      12.638622847680109      16.732118104128311      14.292730000000001
   347   2      12.638928855823149      1.1491937354689088                12.30396
   348   2      12.645165532244681      14.433364447713888                 5.06358
   349   1      12.645165532244683      30.016296498586087      3.0874199999999998
   350   1      12.645165532244683      30.016296498586087      7.1900700000000004
   351   1      12.894133245274197      13.922086298397048                 10.3278
   352   1      12.894133245274197      13.922086298397048                14.43045
   353   2       12.89443797304844      29.505636767399324                12.30396
   354   3      12.900617032873999      1.6604770062609451      5.2105499999999996
   355   2      12.900617032873999      1.6604770062609451      2.9496899999999999
   356   2      12.900617032873999      1.6604770062609451      7.0523499999999997
   357   2      12.900623434717994      17.243401374920349                 5.06358
   358   3      13.149643642868284      11.112054492665782                12.45093