(written by ASE)

742 atoms
3 atom types

0.0      29.050398312215759  xlo xhi
0.0      29.050398312215759  ylo yhi
0.0      61.480760591600003  zlo zhi

Masses

     1       137.3269999646734 # Ba
     2      15.998999995884349 # O
     3      47.866999987686484 # Ti

Atoms # atomic

     1   2     0.13326447193173949      17.678498258591446                12.30396
     2   1     0.13346227114382522      3.1528960893567572                 10.3278
     3   1     0.13346227114382522      3.1528960893567572                14.43045
     4   1     0.13703364580649122      11.373501397543192      3.0874199999999998
     5   1     0.13703364580649122      11.373501397543192      7.1900700000000004
     6   2     0.13703364580649138      25.898703847536787                 5.06358
     7   3     0.40720813903716829      9.4570825230777107                12.45093
     8   2     0.40720813903716829      9.4570825230777107                10.19007
     9   2     0.40720813903716829      9.4570825230777107      14.292730000000001
    10   2     0.40740593824925431      23.981885253830221                12.30396
    11   2      0.4110940693912763      19.595314105086739                 5.06358
    12   3     0.41109406939127613      5.0701116550931422      5.2105499999999996
    13   2     0.41109406939127613      5.0701116550931422      2.9496899999999999
    14   2     0.41109406939127613      5.0701116550931422      7.0523499999999997
    15   1     0.68134960535468303      15.760469518316485                 10.3278
    16   1     0.68134960535468303      15.760469518316485                14.43045
    17   2     0.68155839341188418      1.2344690034463446                12.30396
    18   1     0.68515449297606135      27.817126812630285      3.0874199999999998
    19   1     0.68515449297606135      27.817126812630285      7.1900700000000004
    20   2     0.68515449297606124      13.291924362636689                 5.06358
    21   3     0.95549931330603455      22.063448552680327                12.45093
    22   2     0.95549931330603455      22.063448552680327                10.19007
    23   2     0.95549931330603455      22.063448552680327      14.292730000000001
    24   2     0.95569848612375974      7.5374507850214689                12.30396
    25   2      0.9592149165608459      6.9885346201866358                 5.06358
    26   3     0.95921491656084623      21.513737070180234      5.2105499999999996
    27   2     0.95921491656084623      21.513737070180234      2.9496899999999999
    28   2     0.95921491656084623      21.513737070180234      7.0523499999999997
    29   2      1.2294457276227413      13.842042432406071                12.30396
    30   1      1.2296517684686641      28.366437202283649                 10.3278
    31   1      1.2296517684686641      28.366437202283649                14.43045
    32   1      1.2332753401456307      15.210347327730181      3.0874199999999998
    33   1      1.2332753401456307      15.210347327730181      7.1900700000000004
    34   2       1.233265724906154      0.6851476249478633                 5.06358
    35   2      1.5035954355740937      20.145021466769915                12.30396
    36   3      1.5037946083918183      5.6190236991110565                12.45093
    37   2      1.5037946083918183      5.6190236991110565                10.19007
    38   2      1.5037946083918183      5.6190236991110565      14.292730000000001
    39   2      1.5073357637304163      23.432160035273728                 5.06358
    40   3      1.5073357637304159      8.9069575852801304      5.2105499999999996
    41   2      1.5073357637304159      8.9069575852801304      2.9496899999999999
    42   2      1.5073357637304159      8.9069575852801304      7.0523499999999997
    43   1      1.7775391026795213      11.923605731256183                 10.3278
    44   1      1.7775391026795213      11.923605731256183                14.43045
    45   2      1.7777451435254443      26.448000501133759                12.30396
    46   1       1.781386572075724      2.6035705900413575      3.0874199999999998
    47   1       1.781386572075724      2.6035705900413575      7.1900700000000004
    48   2      1.7813961873151998      17.128770292823674                 5.06358
    49   3      2.0516915578421524      18.226594380859503                12.45093
    50   2      2.0516915578421524      18.226594380859503                10.19007
    51   2      2.0516915578421524      18.226594380859503      14.292730000000001
    52   2      2.0518893570542378      3.7009922116248153                12.30396
    53   2      2.0554566108999852      10.825380550373623                 5.06358
    54   3      2.0554566108999852      25.350583000367219      5.2105499999999996
    55   2      2.0554566108999852      25.350583000367219      2.9496899999999999
    56   2      2.0554566108999852      25.350583000367219      7.0523499999999997
    57   2      2.3256352249475798      10.005178645345771                12.30396
    58   1      2.3258426393991427      24.529978628886997                 10.3278
    59   1      2.3258426393991427      24.529978628886997                14.43045
    60   1      2.3295170344847698      19.047193257917169      3.0874199999999998
    61   1      2.3295170344847698      19.047193257917169      7.1900700000000004
    62   2      2.3295074192452936      4.5219935551348511                 5.06358
    63   2      2.5997863065045714      16.308562893373264                12.30396
    64   3      2.5999854793222967      1.7825651257144033                12.45093
    65   2      2.5999854793222967      1.7825651257144033                10.19007
    66   2      2.5999854793222967      1.7825651257144033      14.292730000000001
    67   2      2.6035774580695552      27.269005965460718                 5.06358
    68   3      2.6035774580695552      12.743803515467119      5.2105499999999996
    69   2      2.6035774580695552      12.743803515467119      2.9496899999999999
    70   2      2.6035774580695552      12.743803515467119      7.0523499999999997
    71   2      2.8739263992164465      22.611544674948387                12.30396
    72   1      2.8741351872736485      8.0855441600782498                 10.3278
    73   1      2.8741351872736485      8.0855441600782498                14.43045
    74   1      2.8776282664148636      6.4404165202283448      3.0874199999999998
    75   1      2.8776282664148636      6.4404165202283448      7.1900700000000004
    76   2      2.8776378816543398      20.965616223010663                 5.06358
    77   3      3.1478824287726304      14.390135807462851                12.45093
    78   2      3.1478824287726304      14.390135807462851                10.19007
    79   2      3.1478824287726304      14.390135807462851      14.292730000000001
    80   2      3.1480788543790772      28.914533324551712                12.30396
    81   2      3.1516983052391248      14.662226480560612                 5.06358
    82   3      3.1516886899996481     0.13702677777829353      5.2105499999999996
    83   2      3.1516886899996481     0.13702677777829353      2.9496899999999999
    84   2      3.1516886899996481     0.13702677777829353      7.0523499999999997
    85   1       3.422022521484505      20.693117589037975                 10.3278
    86   1       3.422022521484505      20.693117589037975                14.43045
    87   2       3.422231309541707      6.1671170741678356                12.30396
    88   1      3.4257587288239097      22.884039188104158      3.0874199999999998
    89   1      3.4257587288239097      22.884039188104158      7.1900700000000004
    90   2      3.4257491135844336      8.3588394853218393                 5.06358
    91   2      3.6959758038294099      12.471699106312961                12.30396
    92   3      3.6961722294358572      26.996096623401819                12.45093
    93   2      3.6961722294358572      26.996096623401819                10.19007
    94   2      3.6961722294358572      26.996096623401819      14.292730000000001
    95   2      3.6998095371692181      2.0554497428717879                 5.06358
    96   3      3.6998191524086939      16.580649445654103      5.2105499999999996
    97   2      3.6998191524086939      16.580649445654103      2.9496899999999999
    98   2      3.6998191524086939      16.580649445654103      7.0523499999999997
    99   2      3.9701186437525644      18.774690503127562                12.30396
   100   1      3.9703260582041269      4.2490855866815957                 10.3278
   101   1      3.9703260582041269      4.2490855866815957                14.43045
   102   1      3.9738699607540031      10.277262450415332      3.0874199999999998
   103   1      3.9738699607540031      10.277262450415332      7.1900700000000004
   104   2      3.9738795759934789      24.802462153197649                 5.06358
   105   3      4.2440623108579922      10.553274767613829                12.45093
   106   2      4.2440623108579922      10.553274767613829                10.19007
   107   2      4.2440623108579922      10.553274767613829      14.292730000000001
   108   2      4.2442697253095565      25.078074751155057                12.30396
   109   2      4.2479399995782643      18.499072410747598                 5.06358
   110   3      4.2479303843387877      3.9738727079652816      5.2105499999999996
   111   2      4.2479303843387877      3.9738727079652816      2.9496899999999999
   112   2      4.2479303843387877      3.9738727079652816      7.0523499999999997
   113   1      4.5182133924149834       16.85665901564132                 10.3278
   114   1      4.5182133924149834       16.85665901564132                14.43045
   115   2      4.5184098180214303       2.330651632742986                12.30396
   116   1      4.5220004231630488      26.720885118291147      3.0874199999999998
   117   1      4.5220004231630488      26.720885118291147      7.1900700000000004
   118   2      4.5219908079235731      12.195685415508828                 5.06358
   119   3      4.7923631003663356      23.159638050005167                12.45093
   120   2      4.7923631003663356      23.159638050005167                10.19007
   121   2      4.7923631003663356      23.159638050005167      14.292730000000001
   122   2      4.7925622731840605      8.6336402823463079                12.30396
   123   2      4.7960512315083577      5.8922956730587748                 5.06358
   124   3      4.7960608467478343      20.417495375841092      5.2105499999999996
   125   2      4.7960608467478343      20.417495375841092      2.9496899999999999
   126   2      4.7960608467478343      20.417495375841092      7.0523499999999997
   127   2      5.0663067674717635      14.938222314491435                12.30396
   128   1      5.0665059402894892     0.41222454683257359                 10.3278
   129   1      5.0665059402894892     0.41222454683257359                14.43045
   130   1      5.0701116550931422      14.114108380602321      3.0874199999999998
   131   1      5.0701116550931422      14.114108380602321      7.1900700000000004
   132   2      5.0701212703326188      28.639308083384641                 5.06358
   133   2      5.3404592226343945      21.241210964094755                12.30396
   134   3      5.3406556482408405      6.7152035811964188                12.45093
   135   2      5.3406556482408405      6.7152035811964188                10.19007
   136   2      5.3406556482408405      6.7152035811964188      14.292730000000001
   137   2      5.3441816939174043      22.335918340934587                 5.06358
   138   3      5.3441720786779277      7.8107186381522693      5.2105499999999996
   139   2      5.3441720786779277      7.8107186381522693      2.9496899999999999
   140   2      5.3441720786779277      7.8107186381522693      7.0523499999999997
   141   1      5.6144028897398224      13.019795228581021                 10.3278
   142   1      5.6144028897398224      13.019795228581021                14.43045
   143   2      5.6145993153462692      27.544192745669879                12.30396
   144   1      5.6182325022627113      1.5073288957022182      3.0874199999999998
   145   1      5.6182325022627113      1.5073288957022182      7.1900700000000004
   146   2      5.6182325022627113      16.032531345695816                 5.06358
   147   3      5.8885525976911746      19.322774262944865                12.45093
   148   2      5.8885525976911746      19.322774262944865                10.19007
   149   2      5.8885525976911746      19.322774262944865      14.292730000000001
   150   2      5.8887531441145393      4.7971817089496547                12.30396
   151   2      5.8922929258474968      9.7291416032457629                 5.06358
   152   3      5.8923025410869734      24.254341306028078      5.2105499999999996
   153   2      5.8923025410869734      24.254341306028078      2.9496899999999999
   154   2      5.8923025410869734      24.254341306028078      7.0523499999999997
   155   2      6.1624990120078813      11.101368142670609                12.30396
   156   1      6.1626940640086882      25.626161258183636                 10.3278
   157   1      6.1626940640086882      25.626161258183636                14.43045
   158   1      6.1663533494322813       17.95095431078931      3.0874199999999998
   159   1      6.1663533494322813       17.95095431078931      7.1900700000000004
   160   2      6.1663533494322813       3.425751860795712                 5.06358
   161   2      6.4366404783253959      17.404755137909383                12.30396
   162   3      6.4368465191713184      2.8787450077997656                12.45093
   163   2      6.4368465191713184      2.8787450077997656                10.19007
   164   2      6.4368465191713184      2.8787450077997656      14.292730000000001
   165   2      6.4404233882565434      26.172764271121576                 5.06358
   166   3      6.4404137730170667      11.647564568339259      5.2105499999999996
   167   2      6.4404137730170667      11.647564568339259      2.9496899999999999
   168   2      6.4404137730170667      11.647564568339259      7.0523499999999997
   169   2      6.7107901862767481      23.707734172273227                12.30396
   170   1      6.7109893590944729      9.1817364046143659                 10.3278
   171   1      6.7109893590944729      9.1817364046143659                14.43045
   172   1      6.7144741966018513      5.3441748258892057      3.0874199999999998
   173   1      6.7144741966018513      5.3441748258892057      7.1900700000000004
   174   2      6.7144741966018513      19.869377275882805                 5.06358
   175   3      6.9847338533821759      15.486318436759493                12.45093
   176   2      6.9847338533821759      15.486318436759493                10.19007
   177   2      6.9847338533821759      15.486318436759493      14.292730000000001
   178   2      6.9849426414393783     0.96031792188935339                12.30396
   179   2      6.9885346201866367      13.565987533432752                 5.06358
   180   3      6.9885442354261134       28.09118723621507      5.2105499999999996
   181   2      6.9885442354261134       28.09118723621507      2.9496899999999999
   182   2      6.9885442354261134       28.09118723621507      7.0523499999999997
   183   1       7.258886308544807      21.789307086362811                 10.3278
   184   1       7.258886308544807      21.789307086362811                14.43045
   185   2      7.2590827341512529      7.2632997034644777                12.30396
   186   1      7.2625950437714213      21.787800240976299      3.0874199999999998
   187   1      7.2625950437714213      21.787800240976299      7.1900700000000004
   188   2      7.2625950437714213      7.2625977909827002                 5.06358
   189   2      7.5328299756502357      13.567891350849081                12.30396
   190   3      7.5330360164961592      28.092286120726659                12.45093
   191   2      7.5330360164961592      28.092286120726659                10.19007
   192   2      7.5330360164961592      28.092286120726659      14.292730000000001
   193   2      7.5366554673562058     0.95920804853264841                 5.06358
   194   3      7.5366554673562058      15.484410498526245      5.2105499999999996
   195   2      7.5366554673562058      15.484410498526245      2.9496899999999999
   196   2      7.5366554673562058      15.484410498526245      7.0523499999999997
   197   2      7.8069796836015861      19.870870385212925                12.30396
   198   1      7.8071802300249518      5.3452778312177145                 10.3278
   199   1      7.8071802300249518      5.3452778312177145                14.43045
   200   1      7.8107158909409904      9.1810207560761921      3.0874199999999998
   201   1      7.8107158909409904      9.1810207560761921      7.1900700000000004
   202   2      7.8107158909409904       23.70622320606979                 5.06358
   203   3      8.0809260979182937      11.649464264938667                12.45093
   204   2      8.0809260979182937      11.649464264938667                10.19007
   205   2      8.0809260979182937      11.649464264938667      14.292730000000001
   206   2      8.0811307651585764      26.174254633240416                12.30396
   207   2      8.0847763145257758      17.402833463619739                 5.06358
   208   3      8.0847763145257758       2.877631013626142      5.2105499999999996
   209   2      8.0847763145257758       2.877631013626142      2.9496899999999999
   210   2      8.0847763145257758       2.877631013626142      7.0523499999999997
   211   1      8.3550771794752858      17.952848512966163                 10.3278
   212   1      8.3550771794752858      17.952848512966163                14.43045
   213   2      8.3552736050817309       3.426841130067825                12.30396
   214   1      8.3588367381105613      25.624646171163288      3.0874199999999998
   215   1      8.3588367381105613      25.624646171163288      7.1900700000000004
   216   2      8.3588367381105613      11.099443721169688                 5.06358
   217   3      8.6292172721871605      24.255830294541287                12.45093
   218   2      8.6292172721871605      24.255830294541287                10.19007
   219   2      8.6292172721871605      24.255830294541287      14.292730000000001
   220   2      8.6294260602443629      9.7298297796711477                12.30396
   221   2      8.6328971616953449      4.7960539787196357                 5.06358
   222   3      8.6328971616953449      19.321256428713234      5.2105499999999996
   223   2      8.6328971616953449      19.321256428713234      2.9496899999999999
   224   2      8.6328971616953449      19.321256428713234      7.0523499999999997
   225   2      8.9031705545320659      16.034411811816273                12.30396
   226   1      8.9033697273497889      1.5084140441574123                 10.3278
   227   1      8.9033697273497889      1.5084140441574123                14.43045
   228   1      8.9069575852801304      13.017866686263181      3.0874199999999998
   229   1      8.9069575852801304      13.017866686263181      7.1900700000000004
   230   2      8.9069575852801304      27.543069136256783                 5.06358
   231   2      9.1773133944552185      22.337403208630874                12.30396
   232   3      9.1775194353011411      7.8113930785212569                12.45093
   233   2      9.1775194353011411      7.8113930785212569                10.19007
   234   2      9.1775194353011411      7.8113930785212569      14.292730000000001
   235   2      9.1810180088649158      21.239679393806728                 5.06358
   236   3      9.1810180088649158      6.7144769438131302      5.2105499999999996
   237   2      9.1810180088649158      6.7144769438131302      2.9496899999999999
   238   2      9.1810180088649158      6.7144769438131302      7.0523499999999997
   239   1      9.4512666768001239      14.115984725905859                 10.3278
   240   1      9.4512666768001239      14.115984725905859                14.43045
   241   2      9.4514631024065707      28.640382242994718                12.30396
   242   1      9.4550784324497013     0.41108720136307841      3.0874199999999998
   243   1      9.4550784324497013     0.41108720136307841      7.1900700000000004
   244   2      9.4550784324496995      14.936289651356674                 5.06358
   245   3      9.7254067695119986      20.418966507480985                12.45093
   246   2      9.7254067695119986      20.418966507480985                10.19007
   247   2      9.7254067695119986      20.418966507480985      14.292730000000001
   248   2      9.7256169311748408      5.8933712062744936                12.30396
   249   2      9.7291388560344849       8.632899908906623                 5.06358
   250   3      9.7291388560344849      23.158102358900219      5.2105499999999996
   251   2      9.7291388560344849      23.158102358900219      2.9496899999999999
   252   2      9.7291388560344849      23.158102358900219      7.0523499999999997
   253   2      9.9993627990681819      12.197557639995447                12.30396
   254   1      9.9995578510689906      26.722350755508479                 10.3278
   255   1      9.9995578510689906      26.722350755508479                14.43045
   256   1      10.003199279619269      16.854712616450168      3.0874199999999998
   257   1      10.003199279619269      16.854712616450168      7.1900700000000004
   258   2       10.00319927961927      2.3295101664565721                 5.06358
   259   2      10.273504265385698       18.50094463523422                12.30396
   260   3      10.273700690992143      3.9749372523358839                12.45093
   261   2      10.273700690992143      3.9749372523358839                10.19007
   262   2      10.273700690992143      3.9749372523358839      14.292730000000001
   263   2      10.277259703204054      25.076525323993717                 5.06358
   264   3      10.277259703204054      10.551322874000119      5.2105499999999996
   265   2      10.277259703204054      10.551322874000119      2.9496899999999999
   266   2      10.277259703204054      10.551322874000119      7.0523499999999997
   267   2      10.547653973337049      24.803923669598063                12.30396
   268   1      10.547850398943496      10.277916286699728                 10.3278
   269   1      10.547850398943496      10.277916286699728                14.43045
   270   1      10.551320126788839      4.2479331315500657      3.0874199999999998
   271   1      10.551320126788839      4.2479331315500657      7.1900700000000004
   272   2      10.551320126788839      18.773135581543663                 5.06358
   273   3      10.821597640442478       16.58250793408433                12.45093
   274   2      10.821597640442478       16.58250793408433                10.19007
   275   2      10.821597640442478       16.58250793408433      14.292730000000001
   276   2      10.821796813260203      2.0565101664254715                12.30396
   277   2      10.825380550373625      12.469745839093612                 5.06358
   278   3      10.825380550373625      26.994948289087212      5.2105499999999996
   279   2      10.825380550373625      26.994948289087212      2.9496899999999999
   280   2      10.825380550373625      26.994948289087212      7.0523499999999997
   281   1      11.095750095605108      22.885496583687654                 10.3278
   282   1      11.095750095605108      22.885496583687654                14.43045
   283   2      11.095946521211555      8.3594892007893176                12.30396
   284   1      11.099440973958409      20.691558546637157      3.0874199999999998
   285   1      11.099440973958409      20.691558546637157      7.1900700000000004
   286   2       11.09944097395841      6.1663560966435602                 5.06358
   287   2      11.369693762710536      14.664080848173917                12.30396
   288   3      11.369890188316981     0.13807346527558276                12.45093
   289   2      11.369890188316981     0.13807346527558276                10.19007
   290   2      11.369890188316981     0.13807346527558276      14.292730000000001
   291   2      11.373501397543194      28.913371254180703                 5.06358
   292   3      11.373501397543194      14.388168804187105      5.2105499999999996
   293   2      11.373501397543194      14.388168804187105      2.9496899999999999
   294   2      11.373501397543194      14.388168804187105      7.0523499999999997
   295   2      11.643843470661889      20.967059882537765                12.30396
   296   1      11.644041269873975      6.4414577133030777                 10.3278
   297   1      11.644041269873975      6.4414577133030777                14.43045
   298   1      11.647561821127979      8.0847790617370539      3.0874199999999998
   299   1      11.647561821127979      8.0847790617370539      7.1900700000000004
   300   2      11.647561821127978      22.609981511730648                 5.06358
   301   3      11.917789884978596      12.745653762263506                12.45093
   302   2      11.917789884978596      12.745653762263506                10.19007
   303   2      11.917789884978596      12.745653762263506      14.292730000000001
   304   2      11.917984936979403      27.270446877776536                12.30396
   305   2      11.921622244712763      16.306591769280601                 5.06358
   306   3      11.921622244712763      1.7813893192870025      5.2105499999999996
   307   2      11.921622244712763      1.7813893192870025      2.9496899999999999
   308   2      11.921622244712763      1.7813893192870025      7.0523499999999997
   309   1      12.191938219324307      19.049028395051522                 10.3278
   310   1      12.191938219324307      19.049028395051522                14.43045
   311   2      12.192137392142033      4.5230306273926635                12.30396
   312   1      12.195682668297549      24.528404476824146      3.0874199999999998
   313   1      12.195682668297549      24.528404476824146      7.1900700000000004
   314   2       12.19568266829755       10.00320202683055                 5.06358
   315   3      12.466081059247461      25.352019791866123                12.45093
   316   2      12.466081059247461      25.352019791866123                10.19007
   317   2      12.466081059247461      25.352019791866123      14.292730000000001
   318   2      12.466277484853908      10.826012408967788                12.30396
   319   2      12.469743091882332      3.6998122843804961                 5.06358
   320   3      12.469743091882334      18.225014734374096      5.2105499999999996
   321   2      12.469743091882334      18.225014734374096      2.9496899999999999
   322   2      12.469743091882334      18.225014734374096      7.0523499999999997
   323   2      12.740024726352891      17.130604056352393                12.30396
   324   1      12.740233514410091      2.6046035414822519                 10.3278
   325   1      12.740233514410091      2.6046035414822519                14.43045
   326   1      12.743803515467119      11.921624991924043      3.0874199999999998
   327   1      12.743803515467119      11.921624991924043      7.1900700000000004
   328   2      12.743803515467118      26.446827441917641                 5.06358
   329   2      13.014174434304241      23.433583090716237                12.30396
   330   3      13.014373607121968      8.9075853230573756                12.45093
   331   2      13.014373607121968      8.9075853230573756                10.19007
   332   2      13.014373607121968      8.9075853230573756      14.292730000000001
   333   2      13.017863939051903       20.14343769946759                 5.06358
   334   3      13.017863939051903      5.6182352494739911      5.2105499999999996
   335   2      13.017863939051903      5.6182352494739911      2.9496899999999999
   336   2      13.017863939051903      5.6182352494739911      7.0523499999999997
   337   1      13.288120848620949       15.21217697044198                 10.3278
   338   1      13.288120848620949       15.21217697044198                14.43045
   339   2      13.288326889466871      0.6861668403323623                12.30396
   340   1      13.291924362636687      28.365250407011132      3.0874199999999998
   341   1      13.291924362636687      28.365250407011132      7.1900700000000004
   342   2      13.291924362636689      13.840047957017536                 5.06358
   343   3      13.562270556572301      21.515156004805821                12.45093
   344   2      13.562270556572301      21.515156004805821                10.19007
   345   2      13.562270556572301      21.515156004805821      14.292730000000001
   346   2      13.562468355784386      6.9895538355711349                12.30396
   347   2      13.565984786221472      7.5366582145674839                 5.06358
   348   3      13.565984786221472      22.061860664561081      5.2105499999999996
   349   2      13.565984786221472      22.061860664561081      2.9496899999999999
   350   2      13.565984786221472      22.061860664561081      7.0523499999999997
   351   2      13.836214223677729      13.293740269292087                12.30396
   352   1      13.836421638129291      27.818540252833316                 10.3278
   353   1      13.836421638129291      27.818540252833316                14.43045
   354   1      13.840045209806258       15.75847092211103      3.0874199999999998
   355   1      13.840045209806258       15.75847092211103      7.1900700000000004
   356   2      13.840045209806258      1.2332684721174325                 5.06358
   357   2      14.110365305234719      19.597124517319582                12.30396
   358   3      14.110564478052446      5.0711267496607233                12.45093