(written by ASE)

350 atoms
3 atom types

0.0      19.951895475499999  xlo xhi
0.0      19.951895475499999  ylo yhi
0.0      61.480760591600003  zlo zhi

Masses

     1       137.3269999646734 # Ba
     2      15.998999995884349 # O
     3      47.866999987686484 # Ti

Atoms # atomic

     1   2     0.19880199999999895      18.555114000000003                12.30396
     2   3     0.19883199999999915      8.5791740000000001                12.45093
     3   2     0.19883199999999915      8.5791740000000001                10.19007
     4   2     0.19883199999999915      8.5791740000000001      14.292730000000001
     5   2      0.1995179999999992      11.372576000000002                 5.06358
     6   1                0.199518      1.3966260000000001      3.0874199999999998
     7   1                0.199518      1.3966260000000001      7.1900700000000004
     8   2     0.59782799999999992      15.761846000000002                12.30396
     9   1     0.59785799999999989      5.7859060000000007                 10.3278
    10   1     0.59785799999999989      5.7859060000000007                14.43045
    11   3     0.59855599999999987      4.1898920000000004      5.2105499999999996
    12   2     0.59855599999999987      4.1898920000000004      2.9496899999999999
    13   2     0.59855599999999987      4.1898920000000004      7.0523499999999997
    14   2     0.59855599999999998      14.165842000000001                 5.06358
    15   2     0.99685800000000047      12.968656000000001                12.30396
    16   3     0.99689799999999995      2.9926360000000005                12.45093
    17   2     0.99689799999999995      2.9926360000000005                10.19007
    18   2     0.99689799999999995      2.9926360000000005      14.292730000000001
    19   2     0.99759399999999854      16.959108000000001                 5.06358
    20   1     0.99759399999999954      6.9831580000000004      3.0874199999999998
    21   1     0.99759399999999954      6.9831580000000004      7.1900700000000004
    22   2       1.395883999999999      10.175388000000002                12.30396
    23   1      1.3959239999999999     0.19936800000000002                 10.3278
    24   1      1.3959239999999999     0.19936800000000002                14.43045
    25   3      1.3966320000000001      9.7764240000000004      5.2105499999999996
    26   2      1.3966320000000001      9.7764240000000004      2.9496899999999999
    27   2      1.3966320000000001      9.7764240000000004      7.0523499999999997
    28   2      1.3966320000000001      19.752374000000003                 5.06358
    29   3       1.794949999999998      17.358000000000001                12.45093
    30   2       1.794949999999998      17.358000000000001                10.19007
    31   2       1.794949999999998      17.358000000000001      14.292730000000001
    32   2                1.794986      7.3820520000000007                12.30396
    33   2      1.7956700000000003      2.5937400000000004                 5.06358
    34   1      1.7956700000000001      12.569690000000003      3.0874199999999998
    35   1      1.7956700000000001      12.569690000000003      7.1900700000000004
    36   1      2.1939719999999991      14.564804000000001                 10.3278
    37   1      2.1939719999999991      14.564804000000001                14.43045
    38   2      2.1940119999999994      4.5887840000000004                12.30396
    39   3      2.1947079999999994      15.362956000000001      5.2105499999999996
    40   2      2.1947079999999994      15.362956000000001      2.9496899999999999
    41   2      2.1947079999999994      15.362956000000001      7.0523499999999997
    42   2      2.1947079999999994      5.3870060000000004                 5.06358
    43   3      2.5930059999999995      11.771542000000002                12.45093
    44   2      2.5930059999999995      11.771542000000002                10.19007
    45   2      2.5930059999999995      11.771542000000002      14.292730000000001
    46   2      2.5930380000000004      1.7955160000000003                12.30396
    47   2      2.5937459999999994      8.1802720000000004                 5.06358
    48   1      2.5937459999999994      18.156222000000003      3.0874199999999998
    49   1      2.5937459999999994      18.156222000000003      7.1900700000000004
    50   1      2.9920319999999996      8.9782740000000008                 10.3278
    51   1      2.9920319999999996      8.9782740000000008                14.43045
    52   2      2.9920639999999996      18.954148000000004                12.30396
    53   3      2.9927780000000004     0.99759600000000037      5.2105499999999996
    54   2      2.9927780000000004     0.99759600000000037      2.9496899999999999
    55   2      2.9927780000000004     0.99759600000000037      7.0523499999999997
    56   2      2.9927840000000008      10.973538000000001                 5.06358
    57   2      3.3910999999999993                16.16095                12.30396
    58   3      3.3911260000000003      6.1849320000000008                12.45093
    59   2      3.3911260000000003      6.1849320000000008                10.19007
    60   2      3.3911260000000003      6.1849320000000008      14.292730000000001
    61   2      3.3918219999999994      13.766804000000002                 5.06358
    62   1      3.3918219999999999      3.7908540000000004      3.0874199999999998
    63   1      3.3918219999999999      3.7908540000000004      7.1900700000000004
    64   2       3.790125999999999      13.367682000000002                12.30396
    65   1      3.7901599999999998      3.3916700000000004                 10.3278
    66   1      3.7901599999999998      3.3916700000000004                14.43045
    67   3      3.7908599999999995      6.5841200000000004      5.2105499999999996
    68   2      3.7908599999999995      6.5841200000000004      2.9496899999999999
    69   2      3.7908599999999995      6.5841200000000004      7.0523499999999997
    70   2      3.7908600000000003                16.56007                 5.06358
    71   2      4.1891520000000009      10.574414000000001                12.30396
    72   3      4.1891860000000003      0.5984020000000001                12.45093
    73   2      4.1891860000000003      0.5984020000000001                10.19007
    74   2      4.1891860000000003      0.5984020000000001      14.292730000000001
    75   2      4.1898979999999986      19.353336000000002                 5.06358
    76   1      4.1898980000000003      9.3773860000000013      3.0874199999999998
    77   1      4.1898980000000003      9.3773860000000013      7.1900700000000004
    78   2       4.588178000000001      7.7811460000000015                12.30396
    79   1      4.5882140000000007      17.757098000000003                 10.3278
    80   1      4.5882140000000007      17.757098000000003                14.43045
    81   3      4.5889360000000003               12.170652      5.2105499999999996
    82   2      4.5889360000000003               12.170652      2.9496899999999999
    83   2      4.5889360000000003               12.170652      7.0523499999999997
    84   2      4.5889300000000004      2.1947100000000002                 5.06358
    85   3      4.9872400000000008      14.963830000000002                12.45093
    86   2      4.9872400000000008      14.963830000000002                10.19007
    87   2      4.9872400000000008      14.963830000000002      14.292730000000001
    88   2       4.987280000000001      4.9878100000000005                12.30396
    89   2      4.9879740000000004      4.9879680000000004                 5.06358
    90   1      4.9879740000000004      14.963918000000003      3.0874199999999998
    91   1      4.9879740000000004      14.963918000000003      7.1900700000000004
    92   1      5.3862739999999993      12.170568000000001                 10.3278
    93   1      5.3862739999999993      12.170568000000001                14.43045
    94   2      5.3863060000000003      2.1945420000000002                12.30396
    95   3      5.3870119999999995      17.757184000000002      5.2105499999999996
    96   2      5.3870119999999995      17.757184000000002      2.9496899999999999
    97   2      5.3870119999999995      17.757184000000002      7.0523499999999997
    98   2      5.3870120000000004      7.7812340000000013                 5.06358
    99   3      5.7852999999999994                  9.3773                12.45093
   100   2      5.7852999999999994                  9.3773                10.19007
   101   2      5.7852999999999994                  9.3773      14.292730000000001
   102   2                5.785336      19.353252000000001                12.30396
   103   2      5.7860499999999995                 10.5745                 5.06358
   104   1      5.7860440000000004     0.59855799999999992      3.0874199999999998
   105   1      5.7860440000000004     0.59855799999999992      7.1900700000000004
   106   1      6.1843260000000004      6.5840320000000014                 10.3278
   107   1      6.1843260000000004      6.5840320000000014                14.43045
   108   2      6.1843620000000001               16.559984                12.30396
   109   3      6.1850820000000004      3.3918240000000006      5.2105499999999996
   110   2      6.1850820000000004      3.3918240000000006      2.9496899999999999
   111   2      6.1850820000000004      3.3918240000000006      7.0523499999999997
   112   2      6.1850880000000013      13.367766000000001                 5.06358
   113   2      6.5833879999999994      13.766716000000001                12.30396
   114   3      6.5834280000000005      3.7906960000000005                12.45093
   115   2      6.5834280000000005      3.7906960000000005                10.19007
   116   2      6.5834280000000005      3.7906960000000005      14.292730000000001
   117   2      6.5841259999999995      16.161032000000002                 5.06358
   118   1      6.5841260000000013      6.1850820000000013      3.0874199999999998
   119   1      6.5841260000000013      6.1850820000000013      7.1900700000000004
   120   2      6.9824139999999995      10.973448000000001                12.30396
   121   1                 6.98245     0.99750000000000005                 10.3278
   122   1                 6.98245     0.99750000000000005                14.43045
   123   3      6.9831639999999995      8.9783480000000004      5.2105499999999996
   124   2      6.9831639999999995      8.9783480000000004      2.9496899999999999
   125   2      6.9831639999999995      8.9783480000000004      7.0523499999999997
   126   2      6.9831639999999986      18.954298000000001                 5.06358
   127   2      7.3814400000000004                 8.18018                12.30396
   128   3       7.381482000000001      18.156124000000002                12.45093
   129   2       7.381482000000001      18.156124000000002                10.19007
   130   2       7.381482000000001      18.156124000000002      14.292730000000001
   131   2      7.3821960000000004      1.7956720000000002                 5.06358
   132   1      7.3822020000000004      11.771614000000001      3.0874199999999998
   133   1      7.3822020000000004      11.771614000000001      7.1900700000000004
   134   2      7.7804740000000008      5.3869180000000014                12.30396
   135   1      7.7805079999999993      15.362856000000001                 10.3278
   136   1      7.7805079999999993      15.362856000000001                14.43045
   137   3      7.7812400000000004      14.564880000000002      5.2105499999999996
   138   2      7.7812400000000004      14.564880000000002      2.9496899999999999
   139   2      7.7812400000000004      14.564880000000002      7.0523499999999997
   140   2      7.7812340000000013      4.5889380000000015                 5.06358
   141   3      8.1795420000000014      12.569594000000002                12.45093
   142   2      8.1795420000000014      12.569594000000002                10.19007
   143   2      8.1795420000000014      12.569594000000002      14.292730000000001
   144   2      8.1795780000000011      2.5936460000000006                12.30396
   145   2      8.1802779999999995      7.3821960000000013                 5.06358
   146   1      8.1802779999999995      17.358146000000001      3.0874199999999998
   147   1      8.1802779999999995      17.358146000000001      7.1900700000000004
   148   1      8.5785680000000006       9.776326000000001                 10.3278
   149   1      8.5785680000000006       9.776326000000001                14.43045
   150   2      8.5786040000000003               19.752278                12.30396
   151   3      8.5793100000000013     0.19952000000000059      5.2105499999999996
   152   2      8.5793100000000013     0.19952000000000059      2.9496899999999999
   153   2      8.5793100000000013     0.19952000000000059      7.0523499999999997
   154   2      8.5793160000000004      10.175462000000001                 5.06358
   155   3      8.9775939999999999      6.9830580000000007                12.45093
   156   2      8.9775939999999999      6.9830580000000007                10.19007
   157   2      8.9775939999999999      6.9830580000000007      14.292730000000001
   158   2      8.9776300000000013      16.959010000000003                12.30396
   159   2      8.9783539999999995               12.968728                 5.06358
   160   1      8.9783480000000022      2.9927860000000011      3.0874199999999998
   161   1      8.9783480000000022      2.9927860000000011      7.1900700000000004
   162   1      9.3766200000000008      4.1897900000000003                 10.3278
   163   1      9.3766200000000008      4.1897900000000003                14.43045
   164   2      9.3766559999999988      14.165742000000002                12.30396
   165   3      9.3773859999999996      5.7860520000000006      5.2105499999999996
   166   2      9.3773859999999996      5.7860520000000006      2.9496899999999999
   167   2      9.3773859999999996      5.7860520000000006      7.0523499999999997
   168   2      9.3773920000000004      15.761994000000001                 5.06358
   169   2      9.7756820000000015      11.372474000000002                12.30396
   170   3      9.7757180000000012      1.3965260000000006                12.45093
   171   2      9.7757180000000012      1.3965260000000006                10.19007
   172   2      9.7757180000000012      1.3965260000000006      14.292730000000001
   173   2      9.7764299999999995      18.555260000000004                 5.06358
   174   1      9.7764300000000013      8.5793100000000013      3.0874199999999998
   175   1      9.7764300000000013      8.5793100000000013      7.1900700000000004
   176   2               10.174716      8.5792120000000018                12.30396
   177   1                10.17475      18.555150000000001                 10.3278
   178   1                10.17475      18.555150000000001                14.43045
   179   3               10.175468      11.372576000000002      5.2105499999999996
   180   2               10.175468      11.372576000000002      2.9496899999999999
   181   2               10.175468      11.372576000000002      7.0523499999999997
   182   2      10.175462000000001      1.3966340000000013                 5.06358
   183   2      10.573742000000001      5.7859440000000006                12.30396
   184   3      10.573775999999999      15.761882000000002                12.45093
   185   2      10.573775999999999      15.761882000000002                10.19007
   186   2      10.573775999999999      15.761882000000002      14.292730000000001
   187   2                 10.5745      4.1899000000000006                 5.06358
   188   1               10.574506      14.165842000000001      3.0874199999999998
   189   1               10.574506      14.165842000000001      7.1900700000000004
   190   2               10.972768      2.9926760000000008                12.30396
   191   1      10.972810000000001      12.968620000000001                 10.3278
   192   1      10.972810000000001      12.968620000000001                14.43045
   193   3               10.973544      16.959108000000001      5.2105499999999996
   194   2               10.973544      16.959108000000001      2.9496899999999999
   195   2               10.973544      16.959108000000001      7.0523499999999997
   196   2      10.973538000000001      6.9831660000000015                 5.06358
   197   3      11.371836000000002      10.175352000000002                12.45093
   198   2      11.371836000000002      10.175352000000002                10.19007
   199   2      11.371836000000002      10.175352000000002      14.292730000000001
   200   2      11.371872000000002     0.19940400000000064                12.30396
   201   2      11.372582000000001      9.7764240000000004                 5.06358
   202   1      11.372582000000001      19.752374000000003      3.0874199999999998
   203   1      11.372582000000001      19.752374000000003      7.1900700000000004
   204   1      11.770862000000001      7.3820840000000016                 10.3278
   205   1      11.770862000000001      7.3820840000000016                14.43045
   206   2      11.770898000000001      17.358036000000002                12.30396
   207   3      11.771614000000001      2.5937480000000011      5.2105499999999996
   208   2      11.771614000000001      2.5937480000000011      2.9496899999999999
   209   2      11.771614000000001      2.5937480000000011      7.0523499999999997
   210   2      11.771619999999999      12.569690000000001                 5.06358
   211   3      12.169888000000002      4.5888160000000013                12.45093
   212   2      12.169888000000002      4.5888160000000013                10.19007
   213   2      12.169888000000002      4.5888160000000013      14.292730000000001
   214   2               12.169924      14.564768000000001                12.30396
   215   2               12.170658      15.362956000000002                 5.06358
   216   1      12.170652000000002      5.3870140000000015      3.0874199999999998
   217   1      12.170652000000002      5.3870140000000015      7.1900700000000004
   218   2      12.568950000000001      11.771500000000001                12.30396
   219   1      12.568986000000001      1.7955520000000007                 10.3278
   220   1      12.568986000000001      1.7955520000000007                14.43045
   221   3      12.569690000000001      8.1802800000000016      5.2105499999999996
   222   2      12.569690000000001      8.1802800000000016      2.9496899999999999
   223   2      12.569690000000001      8.1802800000000016      7.0523499999999997
   224   2      12.569696000000002      18.156222000000003                 5.06358
   225   2               12.967984      8.9782380000000011                12.30396
   226   3               12.968012      18.954184000000001                12.45093
   227   2               12.968012      18.954184000000001                10.19007
   228   2               12.968012      18.954184000000001      14.292730000000001
   229   2               12.968728     0.99759600000000048                 5.06358
   230   1               12.968734      10.973538000000001      3.0874199999999998
   231   1               12.968734      10.973538000000001      7.1900700000000004
   232   2      13.367010000000001      6.1849700000000016                12.30396
   233   1      13.367038000000001      16.160916000000004                 10.3278
   234   1      13.367038000000001      16.160916000000004                14.43045
   235   3               13.367772      13.766804000000002      5.2105499999999996
   236   2               13.367772      13.766804000000002      2.9496899999999999
   237   2               13.367772      13.766804000000002      7.0523499999999997
   238   2      13.367766000000001      3.7908620000000015                 5.06358
   239   3      13.766071999999999      13.367654000000002                12.45093
   240   2      13.766071999999999      13.367654000000002                10.19007
   241   2      13.766071999999999      13.367654000000002      14.292730000000001
   242   2      13.766108000000001      3.3917060000000014                12.30396
   243   2               13.766804      6.5841280000000006                 5.06358
   244   1      13.766810000000001      16.560070000000003      3.0874199999999998
   245   1      13.766810000000001      16.560070000000003      7.1900700000000004
   246   1               14.165098      10.574386000000002                 10.3278
   247   1               14.165098      10.574386000000002                14.43045
   248   2               14.165134      0.5984380000000008                12.30396
   249   3      14.165848000000002      19.353336000000002      5.2105499999999996
   250   2      14.165848000000002      19.353336000000002      2.9496899999999999
   251   2      14.165848000000002      19.353336000000002      7.0523499999999997
   252   2               14.165842      9.3773940000000007                 5.06358
   253   3      14.564124000000001       7.781118000000002                12.45093
   254   2      14.564124000000001       7.781118000000002                10.19007
   255   2      14.564124000000001       7.781118000000002      14.292730000000001
   256   2               14.564166      17.757062000000001                12.30396
   257   2      14.564886000000001      12.170652000000002                 5.06358
   258   1                14.56488       2.194710000000001      3.0874199999999998
   259   1                14.56488       2.194710000000001      7.1900700000000004
   260   2      14.963192000000001      14.963794000000002                12.30396
   261   1      14.963228000000001      4.9878460000000011                 10.3278
   262   1      14.963228000000001      4.9878460000000011                14.43045
   263   3      14.963918000000001      4.9879760000000015      5.2105499999999996
   264   2      14.963918000000001      4.9879760000000015      2.9496899999999999
   265   2      14.963918000000001      4.9879760000000015      7.0523499999999997
   266   2               14.963924      14.963918000000003                 5.06358
   267   2               15.362218      12.170526000000001                12.30396
   268   3      15.362254000000002      2.1945780000000008                12.45093
   269   2      15.362254000000002      2.1945780000000008                10.19007
   270   2      15.362254000000002      2.1945780000000008      14.292730000000001
   271   2      15.362962000000001      17.757184000000002                 5.06358
   272   1      15.362956000000001      7.7812420000000007      3.0874199999999998
   273   1      15.362956000000001      7.7812420000000007      7.1900700000000004
   274   2      15.761252000000001       9.377264000000002                12.30396
   275   1      15.761279999999999      19.353210000000001                 10.3278
   276   1      15.761279999999999      19.353210000000001                14.43045
   277   3      15.761994000000001      10.574508000000002      5.2105499999999996
   278   2      15.761994000000001      10.574508000000002      2.9496899999999999
   279   2      15.761994000000001      10.574508000000002      7.0523499999999997
   280   2      15.761994000000001     0.59855800000000037                 5.06358
   281   3      16.160306000000002      16.559942000000003                12.45093
   282   2      16.160306000000002      16.559942000000003                10.19007
   283   2      16.160306000000002      16.559942000000003      14.292730000000001
   284   2               16.160342      6.5839940000000015                12.30396
   285   2      16.161032000000002      3.3918240000000011                 5.06358
   286   1      16.161038000000001      13.367766000000003      3.0874199999999998
   287   1      16.161038000000001      13.367766000000003      7.1900700000000004
   288   1      16.559340000000002      13.766680000000003                 10.3278
   289   1      16.559340000000002      13.766680000000003                14.43045
   290   2               16.559376      3.7907320000000015                12.30396
   291   3      16.560076000000002      16.161032000000002      5.2105499999999996
   292   2      16.560076000000002      16.161032000000002      2.9496899999999999
   293   2      16.560076000000002      16.161032000000002      7.0523499999999997
   294   2                16.56007      6.1850900000000006                 5.06358
   295   3      16.958366000000002      10.973412000000001                12.45093
   296   2      16.958366000000002      10.973412000000001                10.19007
   297   2      16.958366000000002      10.973412000000001      14.292730000000001
   298   2      16.958402000000003     0.99746400000000102                12.30396
   299   2      16.959108000000001      8.9783560000000016                 5.06358
   300   1               16.959114      18.954298000000001      3.0874199999999998
   301   1               16.959114      18.954298000000001      7.1900700000000004
   302   2      17.357427999999999      18.156096000000002                12.30396
   303   1      17.357464000000004      8.1801480000000026                 10.3278
   304   1      17.357464000000004      8.1801480000000026                14.43045
   305   3      17.358146000000001      1.7956719999999999      5.2105499999999996
   306   2      17.358146000000001      1.7956719999999999      2.9496899999999999
   307   2      17.358146000000001      1.7956719999999999      7.0523499999999997
   308   2      17.358146000000001      11.771622000000002                 5.06358
   309   2      17.756454000000002      15.362828000000002                12.30396
   310   3      17.756489999999999      5.3868800000000014                12.45093
   311   2      17.756489999999999      5.3868800000000014                10.19007
   312   2      17.756489999999999      5.3868800000000014      14.292730000000001
   313   2      17.757190000000001      14.564880000000002                 5.06358
   314   1      17.757183999999999      4.5889380000000006      3.0874199999999998
   315   1      17.757183999999999      4.5889380000000006      7.1900700000000004
   316   2      18.155480000000001      12.569560000000003                12.30396
   317   1      18.155516000000002       2.593612000000002                 10.3278
   318   1      18.155516000000002       2.593612000000002                14.43045
   319   3               18.156222      7.3822040000000015      5.2105499999999996
   320   2               18.156222      7.3822040000000015      2.9496899999999999
   321   2               18.156222      7.3822040000000015      7.0523499999999997
   322   2      18.156227999999999      17.358146000000001                 5.06358
   323   3               18.554548      19.752236000000003                12.45093
   324   2               18.554548      19.752236000000003                10.19007
   325   2               18.554548      19.752236000000003      14.292730000000001
   326   2      18.554584000000002      9.7762880000000028                12.30396
   327   2      18.555260000000001     0.19952000000000172                 5.06358
   328   1      18.555260000000001      10.175470000000002      3.0874199999999998
   329   1      18.555260000000001      10.175470000000002      7.1900700000000004
   330   1      18.953582000000001      16.958974000000001                 10.3278
   331   1      18.953582000000001      16.958974000000001                14.43045
   332   2      18.953610000000001      6.9830200000000007                12.30396
   333   3      18.954298000000001      12.968736000000003      5.2105499999999996
   334   2      18.954298000000001      12.968736000000003      2.9496899999999999
   335   2      18.954298000000001      12.968736000000003      7.0523499999999997
   336   2      18.954298000000001      2.9927859999999997                 5.06358
   337   3               19.352608      14.165706000000002                12.45093
   338   2               19.352608      14.165706000000002                10.19007
   339   2               19.352608      14.165706000000002      14.292730000000001
   340   2      19.352644000000002      4.1897580000000012                12.30396
   341   2      19.353336000000002      5.7860520000000015                 5.06358
   342   1      19.353342000000001      15.761994000000001      3.0874199999999998
   343   1      19.353342000000001      15.761994000000001      7.1900700000000004
   344   1      19.751630000000002      11.372510000000002                 10.3278
   345   1      19.751630000000002      11.372510000000002                14.43045
   346   2      19.751670000000004      1.3964900000000011                12.30396
   347   3      19.752380000000002      18.555260000000004      5.2105499999999996
   348   2      19.752380000000002      18.555260000000004      2.9496899999999999
   349   2      19.752380000000002      18.555260000000004      7.0523499999999997
   350   2      19.752374000000003      8.5793180000000024                 5.06358
