(written by ASE)

1190 atoms
3 atom types

0.0      36.789477468726616  xlo xhi
0.0      36.789477468726616  ylo yhi
0.0      61.480760591600003  zlo zhi

Masses

     1       137.3269999646734 # Ba
     2      15.998999995884349 # O
     3      47.866999987686484 # Ti

Atoms # atomic

     1   2    0.089979499946309077      35.381158094201631                12.30396
     2   1    0.090810343599757301      16.986429288935192                 10.3278
     3   1    0.090810343599757301      16.986429288935192                14.43045
     4   2     0.10820382770765663      1.4066497601995358                 5.06358
     5   1       0.108203827707657      19.801392665945734      3.0874199999999998
     6   1       0.108203827707657      19.801392665945734      7.1900700000000004
     7   2     0.30652165224547401      32.567858573802553                12.30396
     8   3     0.30734490333289483      14.174782778624698                12.45093
     9   2     0.30734490333289483      14.174782778624698                10.19007
    10   2     0.30734490333289483      14.174782778624698      14.292730000000001
    11   3     0.32461256777525893      22.614706286824561      5.2105499999999996
    12   2     0.32461256777525893      22.614706286824561      2.9496899999999999
    13   2     0.32461256777525893      22.614706286824561      7.0523499999999997
    14   2     0.32461256777525888      4.2199633810783661                 5.06358
    15   2     0.52304970406487605      29.754560138055773                12.30396
    16   1     0.52387946306603106      11.361476750311891                 10.3278
    17   1     0.52387946306603106      11.361476750311891                14.43045
    18   2     0.54102130784286118      7.0332770019571953                 5.06358
    19   1     0.54102130784286084      25.428019907703391      3.0874199999999998
    20   1     0.54102130784286084      25.428019907703391      7.1900700000000004
    21   2     0.73958426379801312      26.941254109742967                12.30396
    22   3     0.74042161536519213      8.5481772299128203                12.45093
    23   2     0.74042161536519213      8.5481772299128203                10.19007
    24   2     0.74042161536519213      8.5481772299128203      14.292730000000001
    25   3     0.75743004791046242      28.241333528582221      5.2105499999999996
    26   2     0.75743004791046242      28.241333528582221      2.9496899999999999
    27   2     0.75743004791046242      28.241333528582221      7.0523499999999997
    28   2     0.75743004791046376      9.8465906228360254                 5.06358
    29   2     0.95611882353114841      24.127948081430162                12.30396
    30   1     0.95695617509832875      5.7348712016000132                 10.3278
    31   1     0.95695617509832875      5.7348712016000132                14.43045
    32   2     0.97383878797806611      12.659904243714857                 5.06358
    33   1     0.97383878797806567      31.054647149461054      3.0874199999999998
    34   1     0.97383878797806567      31.054647149461054      7.1900700000000004
    35   2      1.1726609758303088      21.314648561031088                12.30396
    36   3       1.173490734831466      2.9215651732872066                12.45093
    37   2       1.173490734831466      2.9215651732872066                10.19007
    38   2       1.173490734831466      2.9215651732872066      14.292730000000001
    39   3       1.190247528045669      33.867960770339877      5.2105499999999996
    40   2       1.190247528045669      33.867960770339877      2.9496899999999999
    41   2       1.190247528045669      33.867960770339877      7.0523499999999997
    42   2      1.1902475280456681      15.473217864593686                 5.06358
    43   1      1.3883592686485557     0.10660721953811128                 10.3278
    44   1      1.3883592686485557     0.10660721953811128                14.43045
    45   2       1.389195535563446      18.501342532718283                12.30396
    46   2      1.4066562681132704      18.286531485472516                 5.06358
    47   1      1.4066562681132713      36.681274391218707      3.0874199999999998
    48   1      1.4066562681132713      36.681274391218707      7.1900700000000004
    49   3      1.6049003362954277      34.082779410151673                12.45093
    50   2      1.6049003362954277      34.082779410151673                10.19007
    51   2      1.6049003362954277      34.082779410151673      14.292730000000001
    52   2      1.6057300952965834      15.688036504405478                12.30396
    53   3      1.6230650081808728      2.7051022006051499      5.2105499999999996
    54   2      1.6230650081808728      2.7051022006051499      2.9496899999999999
    55   2      1.6230650081808728      2.7051022006051499      7.0523499999999997
    56   2      1.6230650081808724      21.099845106351346                 5.06358
    57   1      1.8214348960285629      31.269473381838864                 10.3278
    58   1      1.8214348960285629      31.269473381838864                14.43045
    59   2      1.8222657396820103       12.87640409457474                12.30396
    60   2      1.8394737482484744      23.913158727230172                 5.06358
    61   1      1.8394737482484746      5.5184158214839796      3.0874199999999998
    62   1      1.8394737482484746      5.5184158214839796      7.1900700000000004
    63   3      2.0379694557616999      28.456167353526059                12.45093
    64   2      2.0379694557616999      28.456167353526059                10.19007
    65   2      2.0379694557616999      28.456167353526059      14.292730000000001
    66   2      2.0388002994151466      10.063098066261935                12.30396
    67   3      2.0558824883160773      8.3317294423628088      5.2105499999999996
    68   2      2.0558824883160773      8.3317294423628088      2.9496899999999999
    69   2      2.0558824883160773      8.3317294423628088      7.0523499999999997
    70   2      2.0558824883160778      26.726472348109006                 5.06358
    71   1      2.2545116080608603      25.642867833126989                 10.3278
    72   1      2.2545116080608603      25.642867833126989                14.43045
    73   2      2.2553348591482845      7.2497920379491285                12.30396
    74   2      2.2722912283836791      29.539785968987836                 5.06358
    75   1      2.2722912283836805      11.145043063241639      3.0874199999999998
    76   1      2.2722912283836805      11.145043063241639      7.1900700000000004
    77   3      2.4710396598802671      22.829569397380205                12.45093
    78   2      2.4710396598802671      22.829569397380205                10.19007
    79   2      2.4710396598802671      22.829569397380205      14.292730000000001
    80   2      2.4718770114474453      4.4364925175500574                12.30396
    81   3      2.4886999684512814      13.958356684120471      5.2105499999999996
    82   2      2.4886999684512814      13.958356684120471      2.9496899999999999
    83   2      2.4886999684512814      13.958356684120471      7.0523499999999997
    84   2      2.4886999684512823      32.353099589866666                 5.06358
    85   2      2.6867444606122461      1.6215204633212039                12.30396
    86   1      2.6875742196134009      20.016263369067399                 10.3278
    87   1      2.6875742196134009      20.016263369067399                14.43045
    88   2      2.7051087085188832      35.166413210745489                 5.06358
    89   1       2.705108708518885      16.771670304999301      3.0874199999999998
    90   1       2.705108708518885      16.771670304999301      7.1900700000000004
    91   2      2.9032790203453831      35.597700246500786                12.30396
    92   3      2.9041163719125627      17.202963848668329                12.45093
    93   2      2.9041163719125627      17.202963848668329                10.19007
    94   2      2.9041163719125627      17.202963848668329      14.292730000000001
    95   3      2.9215174485864859      19.584983925878127      5.2105499999999996
    96   2      2.9215174485864859      19.584983925878127      2.9496899999999999
    97   2      2.9215174485864859      19.584983925878127      7.0523499999999997
    98   2      2.9215109406727522      1.1902486126979572                 5.06358
    99   2      3.1198135800785209      32.784394218187984                12.30396
   100   1      3.1206509316456996      14.389657820355522                 10.3278
   101   1      3.1206509316456996      14.389657820355522                14.43045
   102   2      3.1379261886540886       4.003554641010763                 5.06358
   103   1      3.1379261886540877      22.398297546756957      3.0874199999999998
   104   1      3.1379261886540877      22.398297546756957      7.1900700000000004
   105   2      3.3363557323776813       29.97109469778891                12.30396
   106   3      3.3371854913788375      11.578011310045028                12.45093
   107   2      3.3371854913788375      11.578011310045028                10.19007
   108   2      3.3371854913788375      11.578011310045028      14.292730000000001
   109   3      3.3543349287216913      25.211611167635787      5.2105499999999996
   110   2      3.3543349287216913      25.211611167635787      2.9496899999999999
   111   2      3.3543349287216913      25.211611167635787      7.0523499999999997
   112   2      3.3543349287216908      6.8168682618895931                 5.06358
   113   2      3.5528902921108187      27.157788669476105                12.30396
   114   1      3.5537276436779974      8.7647117896459559                 10.3278
   115   1      3.5537276436779974      8.7647117896459559                14.43045
   116   2      3.5707436687892939       9.630181882768424                 5.06358
   117   1      3.5707436687892944      28.024924788514618      3.0874199999999998
   118   1      3.5707436687892944      28.024924788514618      7.1900700000000004
   119   2      3.7694248518439557        24.3444826411633                12.30396
   120   3      3.7702556954974003      5.9514133538991736                12.45093
   121   2      3.7702556954974003      5.9514133538991736                10.19007
   122   2      3.7702556954974003      5.9514133538991736      14.292730000000001
   123   3      3.7871524088568957      30.838238409393451      5.2105499999999996
   124   2      3.7871524088568957      30.838238409393451      2.9496899999999999
   125   2      3.7871524088568957      30.838238409393451      7.0523499999999997
   126   2      3.7871524088568957      12.443495503647252                 5.06358
   127   1       3.985130737228225      3.1364478075840547                 10.3278
   128   1       3.985130737228225      3.1364478075840547                14.43045
   129   2      3.9859670041431161      21.531183120764226                12.30396
   130   2       4.003561148924498      15.256809124526084                 5.06358
   131   1      4.0035611489244962      33.651552030272278      3.0874199999999998
   132   1      4.0035611489244962      33.651552030272278      7.1900700000000004
   133   3      4.2016652969613624      0.3231417792712486                12.45093
   134   2      4.2016652969613624      0.3231417792712486                10.19007
   135   2      4.2016652969613624      0.3231417792712486      14.292730000000001
   136   2       4.202501563876254       18.71787709245142                12.30396
   137   3      4.2199698889920993      36.464865651151108      5.2105499999999996
   138   2      4.2199698889920993      36.464865651151108      2.9496899999999999
   139   2      4.2199698889920993      36.464865651151108      7.0523499999999997
   140   2      4.2199698889921002      18.070122745404912                 5.06358
   141   1       4.418206364608233      34.299313969884807                 10.3278
   142   1       4.418206364608233      34.299313969884807                14.43045
   143   2      4.4190296156956554      15.904578656704638                12.30396
   144   2      4.4363786290597016      20.883436366283743                 5.06358
   145   1      4.4363721211459675      2.4887010531035707      3.0874199999999998
   146   1      4.4363721211459675      2.4887010531035707      7.1900700000000004
   147   3      4.6347409243413704      31.486007941572002                12.45093
   148   2      4.6347409243413704      31.486007941572002                10.19007
   149   2      4.6347409243413704      31.486007941572002      14.292730000000001
   150   2      4.6355641754287928      13.091272628391831                12.30396
   151   3      4.6527873691273047      5.3020070814163773      5.2105499999999996
   152   2      4.6527873691273047      5.3020070814163773      2.9496899999999999
   153   2      4.6527873691273047      5.3020070814163773      7.0523499999999997
   154   2      4.6527873691273047      23.696749987162573                 5.06358
   155   1      4.8512689761607719      28.672709505825221                 10.3278
   156   1      4.8512689761607719      28.672709505825221                14.43045
   157   2      4.8521063277279524      10.279632625995072                12.30396
   158   2      4.8691961091949079      26.510063608041403                 5.06358
   159   1      4.8691961091949079      8.1153207022952074      3.0874199999999998
   160   1      4.8691961091949079      8.1153207022952074      7.1900700000000004
   161   3       5.067811128459935      25.859409985426151                12.45093
   162   2       5.067811128459935      25.859409985426151                10.19007
   163   2       5.067811128459935      25.859409985426151      14.292730000000001
   164   2      5.0686408874610915      7.4663265976822668                12.30396
   165   3      5.0856048492625092      10.928634323174037      5.2105499999999996
   166   2      5.0856048492625092      10.928634323174037      2.9496899999999999
   167   2      5.0856048492625092      10.928634323174037      7.0523499999999997
   168   2       5.085604849262511      29.323377228920233                 5.06358
   169   2      5.2835159291919149      4.6513610513671475                12.30396
   170   1      5.2843456881930724      23.046103957113342                 10.3278
   171   1      5.2843456881930724      23.046103957113342                14.43045
   172   2      5.3020135893301097      32.136690849799059                 5.06358
   173   1      5.3020135893301124      13.741947944052868      3.0874199999999998
   174   1      5.3020135893301124      13.741947944052868      7.1900700000000004
   175   2      5.5000504889250523      1.8380550230543409                12.30396
   176   3      5.5008802479262098      20.232797928800537                12.45093
   177   2      5.5008802479262098      20.232797928800537                10.19007
   178   2      5.5008802479262098      20.232797928800537      14.292730000000001
   179   3      5.5184223293977137      16.555261564931698      5.2105499999999996
   180   2      5.5184223293977137      16.555261564931698      2.9496899999999999
   181   2      5.5184223293977137      16.555261564931698      7.0523499999999997
   182   2      5.5184223293977128      34.950004470677897                 5.06358
   183   2      5.7165850486581915      35.814234806233927                12.30396
   184   1      5.7174148076593454      17.419491900487731                 10.3278
   185   1      5.7174148076593454      17.419491900487731                14.43045
   186   2      5.7348245615515818     0.97383987263035454                 5.06358
   187   1       5.734831069465316      19.368575185810524      3.0874199999999998
   188   1       5.734831069465316      19.368575185810524      7.1900700000000004
   189   2       5.933119608391328      33.000928777921118                12.30396
   190   3      5.9339569599585058      14.606192380088659                12.45093
   191   2      5.9339569599585058      14.606192380088659                10.19007
   192   2      5.9339569599585058      14.606192380088659      14.292730000000001
   193   3      5.9512398095329182      22.181888806689358      5.2105499999999996
   194   2      5.9512398095329182      22.181888806689358      2.9496899999999999
   195   2      5.9512398095329182      22.181888806689358      7.0523499999999997
   196   2      5.9512333016191841      3.7871534935091846                 5.06358
   197   2      6.1496617606904884      30.187629257522048                12.30396
   198   1      6.1504915196916432      11.792886351775852                 10.3278
   199   1      6.1504915196916432      11.792886351775852                14.43045
   200   2      6.1676485496005213      6.6004595218219917                 5.06358
   201   1      6.1676485496005213      24.995202427568188      3.0874199999999998
   202   1      6.1676485496005213      24.995202427568188      7.1900700000000004
   203   2       6.366196320423624      27.374323229209242                12.30396
   204   3      6.3670195715110456      8.9812474340313813                12.45093
   205   2      6.3670195715110456      8.9812474340313813                10.19007
   206   2      6.3670195715110456      8.9812474340313813      14.292730000000001
   207   3      6.3840572896681245      27.808516048447018      5.2105499999999996
   208   2      6.3840572896681245      27.808516048447018      2.9496899999999999
   209   2      6.3840572896681245      27.808516048447018      7.0523499999999997
   210   2      6.3840572896681227      9.4137731427008209                 5.06358
   211   2      6.5827308801567614      24.561017200896433                12.30396
   212   1      6.5835617238102069       6.167947913632311                 10.3278
   213   1      6.5835617238102069       6.167947913632311                14.43045
   214   2      6.6004660297357258      12.227086763579651                 5.06358
   215   1      6.6004660297357249      30.621829669325844      3.0874199999999998
   216   1      6.6004660297357249      30.621829669325844      7.1900700000000004
   217   3      6.7984367655410312      3.3529823673171917                12.45093
   218   2      6.7984367655410312      3.3529823673171917                10.19007
   219   2      6.7984367655410312      3.3529823673171917      14.292730000000001
   220   2      6.7992589319761638      21.747718765149653                12.30396
   221   3      6.8168747698033263      33.435143290204678      5.2105499999999996
   222   2      6.8168747698033263      33.435143290204678      2.9496899999999999
   223   2      6.8168747698033263      33.435143290204678      7.0523499999999997
   224   2      6.8168747698033281      15.040400384458479                 5.06358
   225   1      7.0149713252741686     0.53967633900438605                 10.3278
   226   1      7.0149713252741686     0.53967633900438605                14.43045
   227   2      7.0158010842753233      18.934419244750579                12.30396
   228   2      7.0332835098709294      17.853714005337309                 5.06358
   229   1      7.0332835098709303      36.248456911083508      3.0874199999999998
   230   1      7.0332835098709303      36.248456911083508      7.1900700000000004
   231   3      7.2315058850073051      34.515856122183969                12.45093
   232   2      7.2315058850073051      34.515856122183969                10.19007
   233   2      7.2315058850073051      34.515856122183969      14.292730000000001
   234   2      7.2323356440084616      16.121113216437774                12.30396
   235   3      7.2496857420247975      2.2722923130359685      5.2105499999999996
   236   2      7.2496857420247975      2.2722923130359685      2.9496899999999999
   237   2      7.2496857420247975      2.2722923130359685      7.0523499999999997
   238   2      7.2496922499385326      20.667027626216139                 5.06358
   239   1      7.4480404447404425      31.702550093871164                 10.3278
   240   1      7.4480404447404425      31.702550093871164                14.43045
   241   2       7.448870203741599      13.307807188124968                12.30396
   242   2      7.4661009900061348       23.48034124709497                 5.06358
   243   1      7.4660944820924007       5.085605933914799      3.0874199999999998
   244   1      7.4660944820924007       5.085605933914799      7.1900700000000004
   245   3      7.6645750044735772      28.889244065558358                12.45093
   246   2      7.6645750044735772      28.889244065558358                10.19007
   247   2      7.6645750044735772      28.889244065558358      14.292730000000001
   248   2      7.6654123560407594      10.494507667725896                12.30396
   249   3      7.6825097300737371      7.8989119622276043      5.2105499999999996
   250   2      7.6825097300737371      7.8989119622276043      2.9496899999999999
   251   2      7.6825097300737371      7.8989119622276043      7.0523499999999997
   252   2      7.6825097300737379      26.293654867973803                 5.06358
   253   1      7.8811095642067146       26.07593803724555                 10.3278
   254   1      7.8811095642067146       26.07593803724555                14.43045
   255   2      7.8819469157738968      7.6828611574154033                12.30396
   256   2      7.8989184701413384       29.10696848885263                 5.06358
   257   1      7.8989184701413393      10.712225583106436      3.0874199999999998
   258   1      7.8989184701413393      10.712225583106436      7.1900700000000004
   259   3      8.0976517165058794      23.262638516846479                12.45093
   260   2      8.0976517165058794      23.262638516846479                10.19007
   261   2      8.0976517165058794      23.262638516846479      14.292730000000001
   262   2      8.0984749675932992       4.869562721668621                12.30396
   263   3      8.1153272102089424      13.525539203985264      5.2105499999999996
   264   2      8.1153272102089424      13.525539203985264      2.9496899999999999
   265   2      8.1153272102089424      13.525539203985264      7.0523499999999997
   266   2      8.1153272102089424       31.92028210973146                 5.06358
   267   2      8.3133500093241235      2.0545971753535013                12.30396
   268   1      8.3141862762390151      20.449332488533674                 10.3278
   269   1      8.3141862762390151      20.449332488533674                14.43045
   270   2      8.3317359502765438       34.73359573061029                 5.06358
   271   1      8.3317359502765438      16.338852824864095      3.0874199999999998
   272   1      8.3317359502765438      16.338852824864095      7.1900700000000004
   273   2      8.5298910769709941      36.030769365967068                12.30396
   274   3      8.5307208359721525      17.636026460220869                12.45093
   275   2      8.5307208359721525      17.636026460220869                10.19007
   276   2      8.5307208359721525      17.636026460220869      14.292730000000001
   277   3      8.5481446903441451      19.152166445742925      5.2105499999999996
   278   2      8.5481446903441451      19.152166445742925      2.9496899999999999
   279   2      8.5481446903441451      19.152166445742925      7.0523499999999997
   280   2      8.5481381824304119     0.75743113256275252                 5.06358
   281   2      8.7464256367041333      33.217463337654259                12.30396
   282   1      8.7472564803575779      14.822734532387818                 10.3278
   283   1      8.7472564803575779      14.822734532387818                14.43045
   284   2       8.764546922498015      3.5707447534415828                 5.06358
   285   1      8.7645534304117501      21.965480066621755      3.0874199999999998
   286   1      8.7645534304117501      21.965480066621755      7.1900700000000004
   287   2      8.9629601964372707       30.40415730934145                12.30396
   288   3      8.9637910400907153      12.009428504075013                12.45093
   289   2      8.9637910400907153      12.009428504075013                10.19007
   290   2      8.9637910400907153      12.009428504075013      14.292730000000001
   291   3      8.9809621704793514      24.778793687500585      5.2105499999999996
   292   2      8.9809621704793514      24.778793687500585      2.9496899999999999
   293   2      8.9809621704793514      24.778793687500585      7.0523499999999997
   294   2      8.9809556625656164      6.3840583743204125                 5.06358
   295   2      9.1794958408226961      27.590865381508401                12.30396
   296   1      9.1803255998238527      9.1961224757622073                 10.3278
   297   1      9.1803255998238527      9.1961224757622073                14.43045
   298   2      9.1973709105469528      9.1973644026332195                 5.06358
   299   1      9.1973709105469528      27.592107308379415      3.0874199999999998
   300   1      9.1973709105469528      27.592107308379415      7.1900700000000004
   301   2      9.3960304005558317      24.777559353195596                12.30396
   302   3      9.3968677521230131      6.3844824733654475                12.45093
   303   2      9.3968677521230131      6.3844824733654475                10.19007
   304   2      9.3968677521230131      6.3844824733654475      14.292730000000001
   305   3      9.4137796506145559      30.405420929258241      5.2105499999999996
   306   2      9.4137796506145559      30.405420929258241      2.9496899999999999
   307   2      9.4137796506145559      30.405420929258241      7.0523499999999997
   308   2      9.4137796506145559      12.010678023512048                 5.06358
   309   2      9.6125649602889691       21.96425332488279                12.30396
   310   1      9.6134023118561505      3.5711764450526413                 10.3278
   311   1      9.6134023118561505      3.5711764450526413                14.43045
   312   2      9.6301883906821573      14.823991644390878                 5.06358
   313   1       9.630188390682159      33.218734550137071      3.0874199999999998
   314   1       9.630188390682159      33.218734550137071      7.1900700000000004
   315   3      9.8282773535869747     0.75621089873752267                12.45093
   316   2      9.8282773535869747     0.75621089873752267                10.19007
   317   2      9.8282773535869747     0.75621089873752267      14.292730000000001
   318   2      9.8291071125881295      19.150953804483716                12.30396
   319   3      9.8465971307497568      36.032048171015902      5.2105499999999996
   320   2      9.8465971307497568      36.032048171015902      2.9496899999999999
   321   2      9.8465971307497568      36.032048171015902      7.0523499999999997
   322   2      9.8465971307497604      17.637305265269706                 5.06358
   323   1      10.044804320754087      34.732384174003371                 10.3278
   324   1      10.044804320754087      34.732384174003371                14.43045
   325   2      10.045641672321269      16.337647776170911                12.30396
   326   2      10.063005870817364       20.45061888614854                 5.06358
   327   1      10.062999362903629      2.0558835729683671      3.0874199999999998
   328   1      10.062999362903629      2.0558835729683671      7.1900700000000004
   329   3      10.261346473053248      31.919084653604301                12.45093
   330   2      10.261346473053248      31.919084653604301                10.19007
   331   2      10.261346473053248      31.919084653604301      14.292730000000001
   332   2      10.262176232054406      13.524341747858106                12.30396
   333   3       10.27940810297123      4.8691971938471958      5.2105499999999996
   334   2       10.27940810297123      4.8691971938471958      2.9496899999999999
   335   2       10.27940810297123      4.8691971938471958      7.0523499999999997
   336   2      10.279414610884967       23.26393250702737                 5.06358
   337   1      10.477881032786385      29.105778625291492                 10.3278
   338   1      10.477881032786385      29.105778625291492                14.43045
   339   2      10.478710791787542      10.711035719545299                12.30396
   340   2      10.495823350952566      26.077246127906196                 5.06358
   341   1      10.495816843038833      7.6825108147260268      3.0874199999999998
   342   1      10.495816843038833      7.6825108147260268      7.1900700000000004
   343   3      10.694415592519524      26.292472596978691                12.45093
   344   2      10.694415592519524      26.292472596978691                10.19007
   345   2      10.694415592519524      26.292472596978691      14.292730000000001
   346   2      10.695246436172969      7.8977437917122515                12.30396
   347   3      10.712232091020169      10.495816843038833      5.2105499999999996
   348   2      10.712232091020169      10.495816843038833      2.9496899999999999
   349   2      10.712232091020169      10.495816843038833      7.0523499999999997
   350   2      10.712232091020169      28.890559748785027                 5.06358
   351   1      10.910957744818685      23.479173076579617                 10.3278
   352   1      10.910957744818685      23.479173076579617                14.43045
   353   2      10.911780995906106      5.0860972814017575                12.30396
   354   2      10.928640831087773      31.703873369663857                 5.06358
   355   1      10.928640831087771      13.309130463917661      3.0874199999999998
   356   1      10.928640831087771      13.309130463917661      7.1900700000000004
   357   3      11.127485796638085      20.665874640832833                12.45093