(written by ASE)

1526 atoms
3 atom types

0.0      41.660780839593123  xlo xhi
0.0      41.660780839593123  ylo yhi
0.0      61.480760591600003  zlo zhi

Masses

     1       137.3269999646734 # Ba
     2      15.998999995884349 # O
     3      47.866999987686484 # Ti

Atoms # atomic

     1   1    0.085028154991652574      17.671672746632073                 10.3278
     2   1    0.085028154991652574      17.671672746632073                14.43045
     3   2     0.08557507380051288      38.502054480577321                12.30396
     4   3    0.095548918908520589       23.98361387055953      5.2105499999999996
     5   2    0.095548918908520589       23.98361387055953      2.9496899999999999
     6   2    0.095548918908520589       23.98361387055953      7.0523499999999997
     7   2    0.095548918908521074      3.1532187270462884                 5.06358
     8   3     0.27596890929791812      11.365212304708651                12.45093
     9   2     0.27596890929791812      11.365212304708651                10.19007
    10   2     0.27596890929791812      11.365212304708651      14.292730000000001
    11   2     0.27651295462792291      32.195603616916749                12.30396
    12   2     0.28665346150956006      9.4596686328805735                 5.06358
    13   1     0.28665346150956073      30.290063776393815      3.0874199999999998
    14   1     0.28665346150956073      30.290063776393815      7.1900700000000004
    15   2     0.46745083545533384      25.889152753256184                12.30396
    16   1     0.46800445904819188      5.0587566519166556                 10.3278
    17   1     0.46800445904819188      5.0587566519166556                14.43045
    18   3     0.47775800411059921      36.596513682228093      5.2105499999999996
    19   2     0.47775800411059921      36.596513682228093      2.9496899999999999
    20   2     0.47775800411059921      36.596513682228093      7.0523499999999997
    21   2     0.47775800411059888      15.766118538714856                 5.06358
    22   2     0.65838871628274387      19.582701889595615                12.30396
    23   3     0.65894521335445633      40.413086497019719                12.45093
    24   2     0.65894521335445633      40.413086497019719                10.19007
    25   2     0.65894521335445633      40.413086497019719      14.292730000000001
    26   2     0.66886254671163758      22.072568444549141                 5.06358
    27   1     0.66886254671163792      1.2421733010358988      3.0874199999999998
    28   1     0.66886254671163792      1.2421733010358988      7.1900700000000004
    29   2     0.84932947058901076      13.276241447672191                12.30396
    30   1     0.84988309418186736      34.106635633359147                 10.3278
    31   1     0.84988309418186736      34.106635633359147                14.43045
    32   3     0.85996708931267707      7.5486232068701833      5.2105499999999996
    33   2     0.85996708931267707      7.5486232068701833      2.9496899999999999
    34   2     0.85996708931267707      7.5486232068701833      7.0523499999999997
    35   2     0.85996708931267773      28.379018350383426                 5.06358
    36   3      1.0408209750092792      27.800184769698578                12.45093
    37   2      1.0408209750092792      27.800184769698578                10.19007
    38   2      1.0408209750092792      27.800184769698578      14.292730000000001
    39   2      1.0413650203392846      6.9697857948801962                12.30396
    40   2      1.0510716319137141       34.68546825621771                 5.06358
    41   1      1.0510716319137154      13.855073112704469      3.0874199999999998
    42   1      1.0510716319137154      13.855073112704469      7.1900700000000004
    43   1      1.2317588558366901       21.49373390603801                 10.3278
    44   1      1.2317588558366901       21.49373390603801                14.43045
    45   2      1.2323029011666951     0.66333493121962661                12.30396
    46   3      1.2421761745147546      20.161523018538752      5.2105499999999996
    47   2      1.2421761745147546      20.161523018538752      2.9496899999999999
    48   2      1.2421761745147546      20.161523018538752      7.0523499999999997
    49   2      1.2421761745147564      40.991918162051988                 5.06358
    50   3      1.4226900318801035      15.187270590635732                12.45093
    51   2      1.4226900318801035      15.187270590635732                10.19007
    52   2      1.4226900318801035      15.187270590635732      14.292730000000001
    53   2      1.4232436554729613       36.01766477632269                12.30396
    54   2      1.4332807171157937       5.637577780859794                 5.06358
    55   1      1.4332807171157949      26.467972924373036      3.0874199999999998
    56   1      1.4332807171157949      26.467972924373036      7.1900700000000004
    57   1      1.6136279127075135      8.8808197269751616                 10.3278
    58   1      1.6136279127075135      8.8808197269751616                14.43045
    59   2      1.6141815363003713      29.711213912662121                12.30396
    60   3      1.6243852597168322      32.774422830207321      5.2105499999999996
    61   2      1.6243852597168322      32.774422830207321      2.9496899999999999
    62   2      1.6243852597168322      32.774422830207321      7.0523499999999997
    63   2      1.6243852597168325      11.944027686694078                 5.06358
    64   2      1.8051194171277813      23.404763049001549                12.30396
    65   3      1.8056730407206396      2.5743669476620226                12.45093
    66   2      1.8056730407206396      2.5743669476620226                10.19007
    67   2      1.8056730407206396      2.5743669476620226      14.292730000000001
    68   2      1.8154898023178716      18.250477592528362                 5.06358
    69   1      1.8154898023178734      39.080872736041599      3.0874199999999998
    70   1      1.8154898023178734      39.080872736041599      7.1900700000000004
    71   2      1.9960601714340482      17.098302607078129                12.30396
    72   1      1.9966042167640534      37.928693919286232                 10.3278
    73   1      1.9966042167640534      37.928693919286232                14.43045
    74   3      2.0065943449189105      3.7265323548494051      5.2105499999999996
    75   2      2.0065943449189105      3.7265323548494051      2.9496899999999999
    76   2      2.0065943449189105      3.7265323548494051      7.0523499999999997
    77   2       2.006594344918911      24.556927498362647                 5.06358
    78   2      2.1869980522614583      10.791851743417558                12.30396
    79   3      2.1875420975914643       31.62224305562566                12.45093
    80   2      2.1875420975914643       31.62224305562566                10.19007
    81   2      2.1875420975914643       31.62224305562566      14.292730000000001
    82   2      2.1976988875199481      30.863377404196932                 5.06358
    83   1       2.197698887519949       10.03298226068369      3.0874199999999998
    84   1       2.197698887519949       10.03298226068369      7.1900700000000004
    85   1      2.3784828518977301      25.315782613702236                 10.3278
    86   1      2.3784828518977301      25.315782613702236                14.43045
    87   2      2.3790336020117322      4.4853960906255628                12.30396
    88   3      2.3888034301209879      16.339432166517973      5.2105499999999996
    89   2      2.3888034301209879      16.339432166517973      2.9496899999999999
    90   2      2.3888034301209879      16.339432166517973      7.0523499999999997
    91   2      2.3888034301209902      37.169827310031209                 5.06358
    92   3       2.569420732725141      19.009331750041667                12.45093
    93   2       2.569420732725141      19.009331750041667                10.19007
    94   2       2.569420732725141      19.009331750041667      14.292730000000001
    95   2      2.5699743563179989      39.839725935728623                12.30396
    96   2      2.5799079727220273      1.8154869288390159                 5.06358
    97   1      2.5799079727220278      22.645882072352258      3.0874199999999998
    98   1      2.5799079727220278      22.645882072352258      7.1900700000000004
    99   1      2.7603586135525511      12.702880886381099                 10.3278
   100   1      2.7603586135525511      12.702880886381099                14.43045
   101   2       2.760912237145408      33.533275072068058                12.30396
   102   3      2.7710125153230654      28.952331978186542      5.2105499999999996
   103   2      2.7710125153230654      28.952331978186542      2.9496899999999999
   104   2      2.7710125153230654      28.952331978186542      7.0523499999999997
   105   2      2.7710125153230658      8.1219368346732992                 5.06358
   106   2      2.9518529914516751      27.226814630144634                12.30396
   107   3      2.9523941633028246      6.3964252335891034                12.45093
   108   2      2.9523941633028246      6.3964252335891034                10.19007
   109   2      2.9523941633028246      6.3964252335891034      14.292730000000001
   110   2      2.9621170579241047      14.428386740507586                 5.06358
   111   1      2.9621170579241052      35.258781884020827      3.0874199999999998
   112   1      2.9621170579241052      35.258781884020827      7.1900700000000004
   113   2      3.1427908722790852      20.920363766484066                12.30396
   114   1      3.1433320441302355    0.089974369928534081                 10.3278
   115   1      3.1433320441302355    0.089974369928534081                14.43045
   116   3      3.1532216005251437      41.565231789855105      5.2105499999999996
   117   2      3.1532216005251437      41.565231789855105      2.9496899999999999
   118   2      3.1532216005251437      41.565231789855105      7.0523499999999997
   119   2       3.153221600525145      20.734836646341869                 5.06358
   120   2      3.3337191748436434      14.613910029344639                12.30396
   121   3      3.3342727984365017        35.4443042150316                12.45093
   122   2      3.3342727984365017        35.4443042150316                10.19007
   123   2      3.3342727984365017        35.4443042150316      14.292730000000001
   124   2      3.3443261431261821      27.041286552176153                 5.06358
   125   1      3.3443261431261826      6.2108914086629108      3.0874199999999998
   126   1      3.3443261431261826      6.2108914086629108      7.1900700000000004
   127   2      3.5246570556710535      8.3074591656840706                12.30396
   128   1      3.5252135527427684      29.137843773108173                 10.3278
   129   1      3.5252135527427684      29.137843773108173                14.43045
   130   3      3.5354306857272215      12.517341314497195      5.2105499999999996
   131   2      3.5354306857272215      12.517341314497195      2.9496899999999999
   132   2      3.5354306857272215      12.517341314497195      7.0523499999999997
   133   2      3.5354306857272233      33.347736458010438                 5.06358
   134   3      3.7161514335701784      22.831392909447604                12.45093
   135   2      3.7161514335701784      22.831392909447604                10.19007
   136   2      3.7161514335701784      22.831392909447604      14.292730000000001
   137   2      3.7167021836841805      2.0010063863709302                12.30396
   138   2      3.7265352283282609      39.654186363844715                 5.06358
   139   1      3.7265352283282618      18.823791220331479      3.0874199999999998
   140   1      3.7265352283282618      18.823791220331479      7.1900700000000004
   141   1      3.9070893143975884      16.524942045787036                 10.3278
   142   1      3.9070893143975884      16.524942045787036                14.43045
   143   2      3.9076333597275941      37.355333357995136                12.30396
   144   3      3.9176397709292985      25.130241126165764      5.2105499999999996
   145   2      3.9176397709292985      25.130241126165764      2.9496899999999999
   146   2      3.9176397709292985      25.130241126165764      7.0523499999999997
   147   2      3.9176397709292994      4.2998459826525215                 5.06358
   148   3      4.0980271952249989      10.218491182126467                12.45093
   149   2      4.0980271952249989      10.218491182126467                10.19007
   150   2      4.0980271952249989      10.218491182126467      14.292730000000001
   151   2       4.098574114033859      31.048872916071716                12.30396
   152   2      4.1087443135303383      10.606295888486807                 5.06358
   153   1      4.1087443135303392      31.436691032000049      3.0874199999999998
   154   1      4.1087443135303392      31.436691032000049      7.1900700000000004
   155   2       4.289511994861269      24.742422052411147                12.30396
   156   1      4.2900627449752733      3.9120355293344704                 10.3278
   157   1      4.2900627449752733      3.9120355293344704                14.43045
   158   3      4.2998488561313781      37.743140937834326      5.2105499999999996
   159   2      4.2998488561313781      37.743140937834326      2.9496899999999999
   160   2      4.2998488561313781      37.743140937834326      7.0523499999999997
   161   2      4.2998488561313781       16.91274579432109                 5.06358
   162   2      4.4804498756886799      18.435971188750575                12.30396
   163   3      4.4810034992815373      39.266365374437534                12.45093
   164   2      4.4810034992815373      39.266365374437534                10.19007
   165   2      4.4810034992815373      39.266365374437534      14.292730000000001
   166   2      4.4909533987324153      23.219195700155375                 5.06358
   167   1      4.4909533987324162      2.3888005566421326      3.0874199999999998
   168   1      4.4909533987324162      2.3888005566421326      7.1900700000000004
   169   2      4.6713877565160908      12.129520325090006                12.30396
   170   1      4.6719442535878031      32.959904932514107                 10.3278
   171   1      4.6719442535878031      32.959904932514107                14.43045
   172   3      4.6820579413334551       8.695250462476416      5.2105499999999996
   173   2      4.6820579413334551       8.695250462476416      2.9496899999999999
   174   2      4.6820579413334551       8.695250462476416      7.0523499999999997
   175   2       4.682057941333456      29.525645605989659                 5.06358
   176   3      4.8628821344152149      26.653454068853542                12.45093
   177   2      4.8628821344152149      26.653454068853542                10.19007
   178   2      4.8628821344152149      26.653454068853542      14.292730000000001
   179   2      4.8634233062663643      5.8230646722980106                12.30396
   180   2      4.8731624839344931      35.832095511823944                 5.06358
   181   1      4.8731624839344949      15.001700368310702      3.0874199999999998
   182   1      4.8731624839344949      15.001700368310702      7.1900700000000004
   183   1      5.0538104369797736      20.347000331714117                 10.3278
   184   1      5.0538104369797736      20.347000331714117                14.43045
   185   2      5.0543640605726301      41.177394517401076                12.30396
   186   3      5.0642670265355321      21.308150274144985      5.2105499999999996
   187   2      5.0642670265355321      21.308150274144985      2.9496899999999999
   188   2      5.0642670265355321      21.308150274144985      7.0523499999999997
   189   2      5.0642641530566772     0.47776470889459566                 5.06358
   190   3      5.2447483178071836      14.040549468053547                12.45093
   191   2      5.2447483178071836      14.040549468053547                10.19007
   192   2      5.2447483178071836      14.040549468053547      14.292730000000001
   193   2      5.2453048148788968      34.870934075477649                12.30396
   194   2      5.2553715691365719      6.7842050364660276                 5.06358
   195   1      5.2553715691365737       27.61460017997927      3.0874199999999998
   196   1      5.2553715691365737       27.61460017997927      7.1900700000000004
   197   1      5.4356890721134494      7.7340890261301256                 10.3278
   198   1      5.4356890721134494      7.7340890261301256                14.43045
   199   2      5.4362426957063068      28.564483211817084                12.30396
   200   3      5.4464761117376108      33.921050085813555      5.2105499999999996
   201   2      5.4464761117376108      33.921050085813555      2.9496899999999999
   202   2      5.4464761117376108      33.921050085813555      7.0523499999999997
   203   2      5.4464761117376117      13.090654942300311                 5.06358
   204   2      5.6271805765337186      22.258032348156512                12.30396
   205   3       5.627734200126576      1.4276362468169854                12.45093
   206   2       5.627734200126576      1.4276362468169854                10.19007
   207   2       5.627734200126576      1.4276362468169854      14.292730000000001
   208   2      5.6375806543386497      19.397104848134596                 5.06358
   209   1      5.6375806543386497      40.227499991647832      3.0874199999999998
   210   1      5.6375806543386497      40.227499991647832      7.1900700000000004
   211   2      5.8181184573611278      15.951581484495943                12.30396
   212   1      5.8186653761699878      36.781963218441192                 10.3278
   213   1      5.8186653761699878      36.781963218441192                14.43045
   214   3      5.8286851969396887      4.8731596104556383      5.2105499999999996
   215   2      5.8286851969396887      4.8731596104556383      2.9496899999999999
   216   2      5.8286851969396887      4.8731596104556383      7.0523499999999997
   217   2      5.8286851969396896      25.703554753968881                 5.06358
   218   2      6.0090592116673935      9.6451210425725211                12.30396
   219   3      6.0096032569974005      30.475512354780623                12.45093
   220   2      6.0096032569974005      30.475512354780623                10.19007
   221   2      6.0096032569974005      30.475512354780623      14.292730000000001
   222   2      6.0197897395407267      32.010004659803165                 5.06358
   223   1      6.0197897395407285      11.179609516289924      3.0874199999999998
   224   1      6.0197897395407285      11.179609516289924      7.1900700000000004
   225   1      6.2005411378248105      24.169061491120054                 10.3278
   226   1      6.2005411378248105      24.169061491120054                14.43045
   227   2      6.2010947614176688      3.3386653897805258                12.30396
   228   3      6.2108942821417656      17.486059422124207      5.2105499999999996
   229   2      6.2108942821417656      17.486059422124207      2.9496899999999999
   230   2      6.2108942821417656      17.486059422124207      7.0523499999999997
   231   2      6.2108942821417674      38.316454565637443                 5.06358
   232   3      6.3914790186522206      17.862610627459482                12.45093
   233   2      6.3914790186522206      17.862610627459482                10.19007
   234   2      6.3914790186522206      17.862610627459482      14.292730000000001
   235   2      6.3920355157239346      38.692995234883583                12.30396
   236   2      6.4019988247428055      2.9621141844452494                 5.06358
   237   1      6.4019988247428063      23.792509327958491      3.0874199999999998
   238   1      6.4019988247428063      23.792509327958491      7.1900700000000004
   239   1      6.5824197729584881       11.55615018553606                 10.3278
   240   1      6.5824197729584881       11.55615018553606                14.43045
   241   2      6.5829733965513446      32.386544371223017                12.30396
   242   3      6.5931033673438435      30.098959233792776      5.2105499999999996
   243   2      6.5931033673438435      30.098959233792776      2.9496899999999999
   244   2      6.5931033673438435      30.098959233792776      7.0523499999999997
   245   2      6.5931033673438453      9.2685640902795328                 5.06358
   246   2      6.7739112773787564      26.080093507562449                12.30396
   247   3      6.7744553227087607      5.2496945327440656                12.45093
   248   2      6.7744553227087607      5.2496945327440656                10.19007
   249   2      6.7744553227087607      5.2496945327440656      14.292730000000001
   250   2      6.7842079099448824      15.575013996113819                 5.06358
   251   1      6.7842079099448824      36.405409139627061      3.0874199999999998
   252   1      6.7842079099448824      36.405409139627061      7.1900700000000004
   253   2      6.9648395799433152      19.773639770423021                12.30396
   254   1      6.9653960770150292      40.604024377847125                 10.3278
   255   1      6.9653960770150292      40.604024377847125                14.43045
   256   3      6.9753095790670665      1.0510783366977126      5.2105499999999996
   257   2      6.9753095790670665      1.0510783366977126      2.9496899999999999
   258   2      6.9753095790670665      1.0510783366977126      7.0523499999999997
   259   2      6.9753124525459231      21.881463901948102                 5.06358
   260   2      7.1557803342495809      13.467179328499601                12.30396
   261   3      7.1563339578424356       34.29757351418656                12.45093
   262   2      7.1563339578424356       34.29757351418656                10.19007
   263   2      7.1563339578424356       34.29757351418656      14.292730000000001
   264   2      7.1664169951469612      28.187913807782387                 5.06358
   265   1      7.1664169951469621      7.3575186642691444      3.0874199999999998
   266   1      7.1664169951469621      7.3575186642691444      7.1900700000000004
   267   2       7.346718215076991      7.1607284648390328                12.30396
   268   1      7.3472718386698492      27.991122650525988                 10.3278
   269   1      7.3472718386698492      27.991122650525988                14.43045
   270   3      7.3575215377479992      13.663968570103428      5.2105499999999996
   271   2      7.3575215377479992      13.663968570103428      2.9496899999999999
   272   2      7.3575215377479992      13.663968570103428      7.0523499999999997
   273   2      7.3575215377480001      34.494363713616664                 5.06358
   274   3      7.5382125929761141      21.684662208602568                12.45093
   275   2      7.5382125929761141      21.684662208602568                10.19007
   276   2      7.5382125929761141      21.684662208602568      14.292730000000001
   277   2      7.5387633430901175     0.85427568552589273                12.30396
   278   2       7.548626080349039      40.800813619450949                 5.06358
   279   1      7.5486260803490408      19.970418475937713      3.0874199999999998
   280   1      7.5486260803490408      19.970418475937713      7.1900700000000004
   281   1       7.729150473803525      15.378211344941997                 10.3278
   282   1       7.729150473803525      15.378211344941997                14.43045
   283   2      7.7296945191335302      36.208602657150095                12.30396
   284   3      7.7397306229500771      26.276868381771997      5.2105499999999996
   285   2      7.7397306229500771      26.276868381771997      2.9496899999999999
   286   2      7.7397306229500771      26.276868381771997      7.0523499999999997
   287   2      7.7397306229500789      5.4464732382587551                 5.06358
   288   3      7.9200883546309351      9.0717604812814283                12.45093
   289   2      7.9200883546309351      9.0717604812814283                10.19007
   290   2      7.9200883546309351      9.0717604812814283      14.292730000000001
   291   2      7.9206323999609403      29.902151793489526                12.30396
   292   2       7.930835165551116      11.752923144093041                 5.06358
   293   1       7.930835165551116      32.583318287606282      3.0874199999999998
   294   1       7.930835165551116      32.583318287606282      7.1900700000000004
   295   2      8.1115731542672069      23.595691351566106                12.30396
   296   1      8.1121239043812086       2.765304828489433                 10.3278
   297   1      8.1121239043812086       2.765304828489433                14.43045
   298   3      8.1219397081521567       38.88976819344056      5.2105499999999996
   299   2      8.1219397081521567       38.88976819344056      2.9496899999999999
   300   2      8.1219397081521567       38.88976819344056      7.0523499999999997
   301   2      8.1219397081521567      18.059373049927324                 5.06358
   302   2      8.3025110350946179      17.289240487905538                12.30396
   303   3      8.3030646586874752      38.119634673592493                12.45093
   304   2      8.3030646586874752      38.119634673592493                10.19007
   305   2      8.3030646586874752      38.119634673592493      14.292730000000001
   306   2      8.3130442507531939      24.365822955761608                 5.06358
   307   1      8.3130442507531956      3.5354278122483662      3.0874199999999998
   308   1      8.3130442507531956      3.5354278122483662      7.1900700000000004
   309   2      8.4934489159220288      10.982789624244969                12.30396
   310   1      8.4940025395148862      31.813183809931925                 10.3278
   311   1      8.4940025395148862      31.813183809931925                14.43045
   312   3      8.5041487933542328      9.8418777180826496      5.2105499999999996
   313   2      8.5041487933542328      9.8418777180826496      2.9496899999999999
   314   2      8.5041487933542328      9.8418777180826496      7.0523499999999997
   315   2      8.5041487933542328      30.672272861595889                 5.06358
   316   3       8.684933715558298      25.506720494529649                12.45093
   317   2       8.684933715558298      25.506720494529649                10.19007
   318   2       8.684933715558298      25.506720494529649      14.292730000000001
   319   2      8.6854844656723014      4.6763339714529737                12.30396
   320   2      8.6952533359552717      36.978722767430177                 5.06358
   321   1      8.6952533359552735      16.148327623916934      3.0874199999999998
   322   1      8.6952533359552735      16.148327623916934      7.1900700000000004
   323   1      8.8758715963857107      19.200269630869077                 10.3278
   324   1      8.8758715963857107      19.200269630869077                14.43045
   325   2      8.8764252199785663      40.030663816556036                12.30396
   326   3      8.8863578785563107      22.454777529751219      5.2105499999999996
   327   2      8.8863578785563107      22.454777529751219      2.9496899999999999
   328   2      8.8863578785563107      22.454777529751219      7.0523499999999997
   329   2      8.8863550050774567      1.6243919645008293                 5.06358
   330   3      9.0668094772131198       12.89381876720851                12.45093
   331   2      9.0668094772131198       12.89381876720851                10.19007
   332   2      9.0668094772131198       12.89381876720851      14.292730000000001
   333   2      9.0673631008059807      33.724212952895464                12.30396
   334   2      9.0774624211573496      7.9308322920722611                 5.06358
   335   1      9.0774624211573496        28.7612274355855      3.0874199999999998
   336   1      9.0774624211573496        28.7612274355855      7.1900700000000004
   337   1      9.2577473580405307        6.58736790354794                 10.3278
   338   1      9.2577473580405307        6.58736790354794                14.43045
   339   2      9.2583038551122421      27.417752510972043                12.30396
   340   3      9.2685669637583903      35.067677341419788      5.2105499999999996
   341   2      9.2685669637583903      35.067677341419788      2.9496899999999999
   342   2      9.2685669637583903      35.067677341419788      7.0523499999999997
   343   2      9.2685669637583903      14.237282197906545                 5.06358
   344   2      9.4492417359396548      21.111301647311475                12.30396
   345   3      9.4497924860536582     0.28091512423480058                12.45093
   346   2      9.4497924860536582     0.28091512423480058                10.19007
   347   2      9.4497924860536582     0.28091512423480058      14.292730000000001
   348   2      9.4596715063594274       20.54373210374083                 5.06358
   349   1      9.4596715063594292      41.374127247254066      3.0874199999999998
   350   1      9.4596715063594292      41.374127247254066      7.1900700000000004
   351   2      9.6401796167670639      14.804850783650904                12.30396
   352   1        9.64072366209707      35.635242095859006                 10.3278
   353   1        9.64072366209707      35.635242095859006                14.43045
   354   3      9.6507760489604664      6.0197868660618719      5.2105499999999996
   355   2      9.6507760489604664      6.0197868660618719      2.9496899999999999
   356   2      9.6507760489604664      6.0197868660618719      7.0523499999999997
   357   2      9.6507760489604664      26.850182009575114                 5.06358