(written by ASE)

1246 atoms
3 atom types

0.0      37.645161092926507  xlo xhi
0.0      37.645161092926507  ylo yhi
0.0      61.480760591600003  zlo zhi

Masses

     1       137.3269999646734 # Ba
     2      15.998999995884349 # O
     3      47.866999987686484 # Ti

Atoms # atomic

     1   1     0.10063407873204394      5.8149596900922509                 10.3278
     2   1     0.10063407873204394      5.8149596900922509                14.43045
     3   2     0.10088741822536504      24.638044823959628                12.30396
     4   2     0.10574326851367447      13.006610706804599                 5.06358
     5   1     0.10574326851367258      31.829195521672617      3.0874199999999998
     6   1     0.10574326851367258      31.829195521672617      7.1900700000000004
     7   3     0.31196161607739187      17.446897306240285                12.45093
     8   2     0.31196161607739187      17.446897306240285                10.19007
     9   2     0.31196161607739187      17.446897306240285      14.292730000000001
    10   2     0.31221495557071394      36.269982440107661                12.30396
    11   3       0.317232985534663      20.197261085518225      5.2105499999999996
    12   2       0.317232985534663      20.197261085518225      2.9496899999999999
    13   2       0.317232985534663      20.197261085518225      7.0523499999999997
    14   2     0.31723298553466345       1.374676270650208                 5.06358
    15   2     0.52354991290122088      10.256247987524539                12.30396
    16   1     0.52380325239454284      29.079333121391919                 10.3278
    17   1     0.52380325239454284      29.079333121391919                14.43045
    18   2     0.52872270255565157      27.387911464231848                 5.06358
    19   1     0.52872270255565224      8.5653266493638327      3.0874199999999998
    20   1     0.52872270255565224      8.5653266493638327      7.1900700000000004
    21   2     0.73489123021900971      21.888182423678931                12.30396
    22   3     0.73513820972505073      3.0655986688087937                12.45093
    23   2     0.73513820972505073      3.0655986688087937                10.19007
    24   2     0.73513820972505073      3.0655986688087937      14.292730000000001
    25   3     0.74021241957664008      34.578561842945476      5.2105499999999996
    26   2     0.74021241957664008      34.578561842945476      2.9496899999999999
    27   2     0.74021241957664008      34.578561842945476      7.0523499999999997
    28   2     0.74021241957664108      15.755977028077458                 5.06358
    29   1      0.9464742270534392      14.697541584946226                 10.3278
    30   1      0.9464742270534392      14.697541584946226                14.43045
    31   2     0.94671908656371884      33.520621418824206                12.30396
    32   2     0.95170213659763037      4.1240425919230645                 5.06358
    33   1     0.95170213659763048      22.946627406791084      3.0874199999999998
    34   1     0.95170213659763048      22.946627406791084      7.1900700000000004
    35   2      1.1580625238772682      7.5068922662304818                12.30396
    36   3      1.1583073833875479       26.32997210010846                12.45093
    37   2      1.1583073833875479       26.32997210010846                10.19007
    38   2      1.1583073833875479       26.32997210010846      14.292730000000001
    39   3      1.1631918536186185      11.314692970636688      5.2105499999999996
    40   2      1.1631918536186185      11.314692970636688      2.9496899999999999
    41   2      1.1631918536186185      11.314692970636688      7.0523499999999997
    42   2      1.1631918536186174      30.137277785504704                 5.06358
    43   2      1.3693900612226162      19.138829882378513                12.30396
    44   1      1.3696370407286578     0.31624612750837744                 10.3278
    45   1      1.3696370407286578     0.31624612750837744                14.43045
    46   2      1.3746815706396078      18.505343349350312                 5.06358
    47   1      1.3746815706396074      37.327928164218328      3.0874199999999998
    48   1      1.3746815706396074      37.327928164218328      7.1900700000000004
    49   3       1.580978358046446      11.948180563662769                12.45093
    50   2       1.580978358046446      11.948180563662769                10.19007
    51   2       1.580978358046446      11.948180563662769      14.292730000000001
    52   2      1.5812316975397653      30.771265697530147                12.30396
    53   3      1.5861712876605965      25.695993728063939      5.2105499999999996
    54   2      1.5861712876605965      25.695993728063939      2.9496899999999999
    55   2      1.5861712876605965      25.695993728063939      7.0523499999999997
    56   2      1.5861712876605971      6.8734089131959211                 5.06358
    57   2       1.792566654870275      4.7575312449470255                12.30396
    58   1      1.7928199943635958      23.580616378814408                 10.3278
    59   1      1.7928199943635958      23.580616378814408                14.43045
    60   2      1.7976610046815849      32.886644106777567                 5.06358
    61   1      1.7976610046815868      14.064059291909546      3.0874199999999998
    62   1      1.7976610046815868      14.064059291909546      7.1900700000000004
    63   2      2.0038941922156228      16.389468861095057                12.30396
    64   3      2.0041475317089446      35.212553994962441                12.45093
    65   2      2.0041475317089446      35.212553994962441                10.19007
    66   2      2.0041475317089446      35.212553994962441      14.292730000000001
    67   3       2.009150721702575      2.4321248557551529      5.2105499999999996
    68   2       2.009150721702575      2.4321248557551529      2.9496899999999999
    69   2       2.009150721702575      2.4321248557551529      7.0523499999999997
    70   2      2.0091507217025755      21.254709670623168                 5.06358
    71   1      2.2154824890394522      9.1988195423793133                 10.3278
    72   1      2.2154824890394522      9.1988195423793133                14.43045
    73   2      2.2157358285327722      28.021904676246692                12.30396
    74   2      2.2206404387235636      9.6227752344687776                 5.06358
    75   1      2.2206404387235623      28.445360049336792      3.0874199999999998
    76   1      2.2206404387235623      28.445360049336792      7.1900700000000004
    77   3      2.4268185063678387      20.830762458516748                12.45093
    78   2      2.4268185063678387      20.830762458516748                10.19007
    79   2      2.4268185063678387      20.830762458516748      14.292730000000001
    80   2      2.4270654858738823       2.008178703646609                12.30396
    81   3      2.4321301557445518      16.813425613182403      5.2105499999999996
    82   2      2.4321301557445518      16.813425613182403      2.9496899999999999
    83   2      2.4321301557445518      16.813425613182403      7.0523499999999997
    84   2      2.4321301557445523      35.636010428050419                 5.06358
    85   2      2.6384068031916694      13.640113139801002                12.30396
    86   1      2.6386516627019514      32.463192973678979                 10.3278
    87   1      2.6386516627019514      32.463192973678979                14.43045
    88   2      2.6436198727655413      24.004075991896027                 5.06358
    89   1      2.6436198727655413      5.1814911770280094      3.0874199999999998
    90   1      2.6436198727655413      5.1814911770280094      7.1900700000000004
    91   3      2.8499898000260999      6.4494723010682975                12.45093
    92   2      2.8499898000260999      6.4494723010682975                10.19007
    93   2      2.8499898000260999      6.4494723010682975      14.292730000000001
    94   2      2.8502346595363819      25.272552134946274                12.30396
    95   3        2.85510958978653      31.194726370609651      5.2105499999999996
    96   2        2.85510958978653      31.194726370609651      2.9496899999999999
    97   2        2.85510958978653      31.194726370609651      7.0523499999999997
    98   2      2.8551095897865308      12.372141555741635                 5.06358
    99   1      3.0613226373608473      18.081401437233289                 10.3278
   100   1      3.0613226373608473      18.081401437233289                14.43045
   101   2      3.0615749168562885      36.903978832116145                12.30396
   102   2      3.0665940068181197      0.7402155995702816                 5.06358
   103   1      3.0665993068075204      19.562791934455259      3.0874199999999998
   104   1      3.0665993068075204      19.562791934455259      7.1900700000000004
   105   2       3.272910934184678      10.890752118517547                12.30396
   106   3       3.273164273677998      29.713837252384927                12.45093
   107   2       3.273164273677998      29.713837252384927                10.19007
   108   2       3.273164273677998      29.713837252384927      14.292730000000001
   109   3      3.2780890238285085      7.9308574983008659      5.2105499999999996
   110   2      3.2780890238285085      7.9308574983008659      2.9496899999999999
   111   2      3.2780890238285085      7.9308574983008659      7.0523499999999997
   112   2      3.2780890238285072      26.753442313168883                 5.06358
   113   1      3.4844939310191068      3.7001112797848408                 10.3278
   114   1      3.4844939310191068      3.7001112797848408                14.43045
   115   2      3.4847472705124285      22.523196413652219                12.30396
   116   2      3.4895787408494976      15.121507877014489                 5.06358
   117   1      3.4895787408494972       33.94409269188251      3.0874199999999998
   118   1      3.4895787408494972       33.94409269188251      7.1900700000000004
   119   3      3.6958267683538555      15.332040415949832                12.45093
   120   2      3.6958267683538555      15.332040415949832                10.19007
   121   2      3.6958267683538555      15.332040415949832      14.292730000000001
   122   2      3.6960801078471772      34.155125549817214                12.30396
   123   3      3.7010684578704862      22.312158255728114      5.2105499999999996
   124   2      3.7010684578704862      22.312158255728114      2.9496899999999999
   125   2      3.7010684578704862      22.312158255728114      7.0523499999999997
   126   2      3.7010684578704862      3.4895734408600974                 5.06358
   127   2      3.9074097651882838       8.141399577217129                12.30396
   128   1      3.9076631046816059      26.964484711084509                 10.3278
   129   1      3.9076631046816059      26.964484711084509                14.43045
   130   2      3.9125581748914748      29.502808634441738                 5.06358
   131   1      3.9125581748914762      10.680223819573722      3.0874199999999998
   132   1      3.9125581748914762      10.680223819573722      7.1900700000000004
   133   2      4.1187510825060718      19.773334013371521                12.30396
   134   3       4.118998062012114     0.95075025850138462                12.45093
   135   2       4.118998062012114     0.95075025850138462                10.19007
   136   2       4.118998062012114     0.95075025850138462      14.292730000000001
   137   3      4.1240478919124648      36.693459013155362      5.2105499999999996
   138   2      4.1240478919124648      36.693459013155362      2.9496899999999999
   139   2      4.1240478919124648      36.693459013155362      7.0523499999999997
   140   2      4.1240478919124639      17.870874198287346                 5.06358
   141   1       4.330339379329903      12.582684694655777                 10.3278
   142   1       4.330339379329903      12.582684694655777                14.43045
   143   2      4.3305842388401841      31.405764528533755                12.30396
   144   2      4.3355376089334534      6.2389397621329543                 5.06358
   145   1      4.3355376089334525       25.06152457700097      3.0874199999999998
   146   1      4.3355376089334525       25.06152457700097      7.1900700000000004
   147   2      4.5419223761643313       5.392043855923073                12.30396
   148   3      4.5421672356746114      24.215123689801054                12.45093
   149   2      4.5421672356746114      24.215123689801054                10.19007
   150   2      4.5421672356746114      24.215123689801054      14.292730000000001
   151   3       4.547027325954442      13.429590140846578      5.2105499999999996
   152   2       4.547027325954442      13.429590140846578      2.9496899999999999
   153   2       4.547027325954442      13.429590140846578      7.0523499999999997
   154   2       4.547027325954442      32.252174955714594                 5.06358
   155   2        4.75325521349908      17.023972992088066                12.30396
   156   1      4.7535021930051196      35.846558866953956                 10.3278
   157   1      4.7535021930051196      35.846558866953956                14.43045
   158   2      4.7585170429754307      20.620240519560202                 5.06358
   159   1      4.7585117429860313      1.7976641846752262      3.0874199999999998
   160   1      4.7585117429860313      1.7976641846752262      7.1900700000000004
   161   3      4.9648382103335091      9.8333321533553608                12.45093
   162   2      4.9648382103335091      9.8333321533553608                10.19007
   163   2      4.9648382103335091      9.8333321533553608      14.292730000000001
   164   2      4.9650915498268304      28.656417287222741                12.30396
   165   3      4.9700067599964193      27.810890898273829      5.2105499999999996
   166   2      4.9700067599964193      27.810890898273829      2.9496899999999999
   167   2      4.9700067599964193      27.810890898273829      7.0523499999999997
   168   2      4.9700067599964211      8.9883060834058117                 5.06358
   169   2      5.1764265071573385      2.6426828346396163                12.30396
   170   1      5.1766798466506589      21.465767968506995                 10.3278
   171   1      5.1766798466506589      21.465767968506995                14.43045
   172   2      5.1814964770174097      35.001541276987453                 5.06358
   173   1      5.1814964770174097      16.178956462119434      3.0874199999999998
   174   1      5.1814964770174097      16.178956462119434      7.1900700000000004
   175   2      5.3877593444920864      14.274611970804608                12.30396
   176   3      5.3880126839854068      33.097697104671987                12.45093
   177   2      5.3880126839854068      33.097697104671987                10.19007
   178   2      5.3880126839854068      33.097697104671987      14.292730000000001
   179   3      5.3929861940383983      4.5470220259650427      5.2105499999999996
   180   2      5.3929861940383983      4.5470220259650427      2.9496899999999999
   181   2      5.3929861940383983      4.5470220259650427      7.0523499999999997
   182   2      5.3929861940383974      23.369606840833058                 5.06358
   183   1      5.5993423413265155      7.0839711320719045                 10.3278
   184   1      5.5993423413265155      7.0839711320719045                14.43045
   185   2      5.5995956808198386      25.907056265939282                12.30396
   186   2      5.6044759110593869      11.737672404678667                 5.06358
   187   1      5.6044759110593869      30.560257219546685      3.0874199999999998
   188   1      5.6044759110593869      30.560257219546685      7.1900700000000004
   189   3      5.8106836586443036      18.715905568226294                12.45093
   190   2      5.8106836586443036      18.715905568226294                10.19007
   191   2      5.8106836586443036      18.715905568226294      14.292730000000001
   192   2      5.8109306381503432      37.538491443092191                12.30396
   193   3      5.8159656280803746      18.928322783392293      5.2105499999999996
   194   2      5.8159656280803746      18.928322783392293      2.9496899999999999
   195   2      5.8159656280803746      18.928322783392293      7.0523499999999997
   196   2      5.8159603280909762     0.10574644850731449                 5.06358
   197   2      6.0222666554787327      11.525264729493593                12.30396
   198   1      6.0225199949720558      30.348349863360973                 10.3278
   199   1      6.0225199949720558      30.348349863360973                14.43045
   200   2      6.0274553451013642      26.118973162105917                 5.06358
   201   1       6.027455345101365      7.2963883472378992      3.0874199999999998
   202   1       6.027455345101365      7.2963883472378992      7.1900700000000004
   203   3       6.233854952302563      4.3346154107778476                12.45093
   204   2       6.233854952302563      4.3346154107778476                10.19007
   205   2       6.233854952302563      4.3346154107778476      14.292730000000001
   206   2      6.2340998118128432      23.157695244655827                12.30396
   207   3      6.2389450621223546      33.309623540819544      5.2105499999999996
   208   2      6.2389450621223546      33.309623540819544      2.9496899999999999
   209   2      6.2389450621223546      33.309623540819544      7.0523499999999997
   210   2      6.2389450621223537      14.487038725951523                 5.06358
   211   1      6.4451877896373109      15.966544546942838                 10.3278
   212   1      6.4451877896373109      15.966544546942838                14.43045
   213   2      6.4454347691433522      34.789130421808736                12.30396
   214   2      6.4504294791539429      2.8551127697801708                 5.06358
   215   1      6.4504347791433423      21.677689104665145      3.0874199999999998
   216   1      6.4504347791433423      21.677689104665145      7.1900700000000004
   217   2      6.6567707864717409      8.7759037082101372                12.30396
   218   3      6.6570241259650631      27.598988842077514                12.45093
   219   2      6.6570241259650631      27.598988842077514                10.19007
   220   2      6.6570241259650631      27.598988842077514      14.292730000000001
   221   3      6.6619244961643318      10.045754668510755      5.2105499999999996
   222   2      6.6619244961643318      10.045754668510755      2.9496899999999999
   223   2      6.6619244961643318      10.045754668510755      7.0523499999999997
   224   2      6.6619244961643318      28.868339483378776                 5.06358
   225   1      6.8683590832955703      1.5852543894943918                 10.3278
   226   1      6.8683590832955703      1.5852543894943918                14.43045
   227   2      6.8686124227888907      20.408339523361771                12.30396
   228   2      6.8734142131853204       17.23640504722438                 5.06358
   229   1      6.8734142131853186      36.058989862092396      3.0874199999999998
   230   1      6.8734142131853186      36.058989862092396      7.1900700000000004
   231   3      7.0796866206409188      13.217192005642424                12.45093
   232   2      7.0796866206409188      13.217192005642424                10.19007
   233   2      7.0796866206409188      13.217192005642424      14.292730000000001
   234   2      7.0799399601342392      32.040277139509804                12.30396
   235   3       7.084903930206309      24.427055425938004      5.2105499999999996
   236   2       7.084903930206309      24.427055425938004      2.9496899999999999
   237   2       7.084903930206309      24.427055425938004      7.0523499999999997
   238   2      7.0849039302063099      5.6044706110699876                 5.06358
   239   2      7.2912749174647482        6.02654268692668                12.30396
   240   1      7.2915282569580695      24.849627820794062                 10.3278
   241   1      7.2915282569580695      24.849627820794062                14.43045
   242   2      7.2963936472272994      31.617705804651628                 5.06358
   243   1      7.2963936472272994      12.795120989783612      3.0874199999999998
   244   1      7.2963936472272994      12.795120989783612      7.1900700000000004
   245   2       7.502610934793136      17.658485603064111                12.30396
   246   3      7.5028632142885776      36.481062997946971                12.45093
   247   2      7.5028632142885776      36.481062997946971                10.19007
   248   2      7.5028632142885776      36.481062997946971      14.292730000000001
   249   3      7.5078780642588878      1.1631950336122594      5.2105499999999996
   250   2      7.5078780642588878      1.1631950336122594      2.9496899999999999
   251   2      7.5078780642588878      1.1631950336122594      7.0523499999999997
   252   2      7.5078833642482863      19.985771368497236                 5.06358
   253   1      7.7141992316169654      10.467836284348369                 10.3278
   254   1      7.7141992316169654      10.467836284348369                14.43045
   255   2      7.7144525711102858      29.290921418215749                12.30396
   256   2      7.7193730812692767      8.3538369323428441                 5.06358
   257   1      7.7193730812692767      27.176421747210863      3.0874199999999998
   258   1      7.7193730812692767      27.176421747210863      7.1900700000000004
   259   2      7.9257875284407948      3.2771869656326236                12.30396
   260   3      7.9260408679341161      22.100272099500003                12.45093
   261   2      7.9260408679341161      22.100272099500003                10.19007
   262   2      7.9260408679341161      22.100272099500003      14.292730000000001
   263   3      7.9308627982902644      15.544487311056468      5.2105499999999996
   264   2      7.9308627982902644      15.544487311056468      2.9496899999999999
   265   2      7.9308627982902644      15.544487311056468      7.0523499999999997
   266   2      7.9308627982902635      34.367072125924487                 5.06358
   267   2      8.1371150657861424      14.909124581780654                12.30396
   268   1      8.1373673452815822      33.731701976663516                 10.3278
   269   1      8.1373673452815822      33.731701976663516                14.43045
   270   2      8.1423525153112539      22.735137689770092                 5.06358
   271   1      8.1423472153218555      3.9125613548851161      3.0874199999999998
   272   1      8.1423472153218555      3.9125613548851161      7.1900700000000004
   273   3      8.3487033626099727      7.7184752630649118                12.45093
   274   2      8.3487033626099727      7.7184752630649118                10.19007
   275   2      8.3487033626099727      7.7184752630649118      14.292730000000001
   276   2      8.3489567021032922       26.54156039693229                12.30396
   277   3      8.3538422323322443      29.925788068483719      5.2105499999999996
   278   2      8.3538422323322443      29.925788068483719      2.9496899999999999
   279   2      8.3538422323322443      29.925788068483719      7.0523499999999997
   280   2      8.3538422323322443        11.1032032536157                 5.06358
   281   1      8.5600383199404817      19.349910440217823                 10.3278
   282   1      8.5600383199404817      19.349910440217823                14.43045
   283   2      8.5602863594444027     0.52783442433220729                12.30396
   284   2      8.5653319493532312      37.116438447197339                 5.06358
   285   1      8.5653319493532312      18.293853632329323      3.0874199999999998
   286   1      8.5653319493532312      18.293853632329323      7.1900700000000004
   287   2      8.7716191967791506      12.159763560497201                12.30396
   288   3      8.7718725362724719      30.982848694364577                12.45093
   289   2      8.7718725362724719      30.982848694364577                10.19007
   290   2      8.7718725362724719      30.982848694364577      14.292730000000001
   291   3      8.7768216663742216      6.6619191961749316      5.2105499999999996
   292   2      8.7768216663742216      6.6619191961749316      2.9496899999999999
   293   2      8.7768216663742216      6.6619191961749316      7.0523499999999997
   294   2      8.7768216663742216      25.484504011042947                 5.06358
   295   1      8.9832074936029791      4.9691142417814547                 10.3278
   296   1      8.9832074936029791      4.9691142417814547                14.43045
   297   2      8.9834608330962986      23.792199375648835                12.30396
   298   2      8.9883113833952102      13.852569574888557                 5.06358
   299   1      8.9883113833952084      32.675154389756571      3.0874199999999998
   300   1      8.9883113833952084      32.675154389756571      7.1900700000000004
   301   3      9.1945435109313678      16.601057157918888                12.45093
   302   2      9.1945435109313678      16.601057157918888                10.19007
   303   2      9.1945435109313678      16.601057157918888      14.292730000000001
   304   2      9.1947957904268112      35.423634552801744                12.30396
   305   3      9.1998011004161988      21.043219953602183      5.2105499999999996
   306   2      9.1998011004161988      21.043219953602183      2.9496899999999999
   307   2      9.1998011004161988      21.043219953602183      7.0523499999999997
   308   2      9.1997958004268003      2.2206436187172045                 5.06358
   309   2      9.4061318077551963      9.4104078392031418                12.30396
   310   1      9.4063851472485176      28.233492973070522                 10.3278
   311   1      9.4063851472485176      28.233492973070522                14.43045
   312   2      9.4112908174371892      28.233870332315806                 5.06358
   313   1      9.4112908174371892       9.411285517447789      3.0874199999999998
   314   1      9.4112908174371892       9.411285517447789      7.1900700000000004
   315   2      9.6174667650857035      21.041843016356051                12.30396
   316   3      9.6177148045896281      2.2197670004704397                12.45093
   317   2      9.6177148045896281      2.2197670004704397                10.19007
   318   2      9.6177148045896281      2.2197670004704397      14.292730000000001
   319   3       9.622780534458176       35.42452071102943      5.2105499999999996
   320   2       9.622780534458176       35.42452071102943      2.9496899999999999
   321   2       9.622780534458176       35.42452071102943      7.0523499999999997
   322   2       9.622780534458176      16.601935896161411                 5.06358
   323   1      9.8290476419243742      13.851696136635431                 10.3278
   324   1      9.8290476419243742      13.851696136635431                14.43045
   325   2      9.8292999214198176      32.674273531518288                12.30396
   326   2      9.8342649514897662      4.9700099399900601                 5.06358
   327   1      9.8342702514791664      23.792586274875038      3.0874199999999998
   328   1      9.8342702514791664      23.792586274875038      7.1900700000000004
   329   2      10.040635938748204      6.6610468179196873                12.30396
   330   3      10.040889278241524      25.484131951787067                12.45093
   331   2      10.040889278241524      25.484131951787067                10.19007
   332   2      10.040889278241524      25.484131951787067      14.292730000000001
   333   3      10.045759968500155      12.160651838720645      5.2105499999999996
   334   2      10.045759968500155      12.160651838720645      2.9496899999999999
   335   2      10.045759968500155      12.160651838720645      7.0523499999999997
   336   2      10.045759968500153      30.983236653588662                 5.06358
   337   2       10.25197089607871      18.292481995072595                12.30396
   338   1      10.252224235572033      37.115567128939979                 10.3278
   339   1      10.252224235572033      37.115567128939979                14.43045
   340   2      10.257249685521144       19.35130221743427                 5.06358
   341   1      10.257244385531743     0.52872588254929287      3.0874199999999998
   342   1      10.257244385531743     0.52872588254929287      7.1900700000000004
   343   3      10.463560252900422      11.102340415341375                12.45093
   344   2      10.463560252900422      11.102340415341375                10.19007
   345   2      10.463560252900422      11.102340415341375      14.292730000000001
   346   2      10.463805112410704      29.925420249219357                12.30396
   347   3      10.468739402542134      26.541952596147894      5.2105499999999996
   348   2      10.468739402542134      26.541952596147894      2.9496899999999999
   349   2      10.468739402542134      26.541952596147894      7.0523499999999997
   350   2      10.468739402542134      7.7193677812798773                 5.06358
   351   1       10.67488673024789      22.733770292504886                 10.3278
   352   1       10.67488673024789      22.733770292504886                14.43045
   353   2      10.675134769751812      3.9116942766192708                12.30396
   354   2      10.680229119563121      33.732602974861514                 5.06358
   355   1      10.680229119563121        14.9100181599935      3.0874199999999998
   356   1      10.680229119563121        14.9100181599935      7.1900700000000004
   357   2      10.886476087069598      15.543628712773662                12.30396