(written by ASE)

574 atoms
3 atom types

0.0      25.550893100380168  xlo xhi
0.0      25.550893100380168  ylo yhi
0.0      61.480760591600003  zlo zhi

Masses

     1       137.3269999646734 # Ba
     2      15.998999995884349 # O
     3      47.866999987686484 # Ti

Atoms # atomic

     1   1     0.15399357617264228      11.373087152404908                 10.3278
     2   1     0.15399357617264228      11.373087152404908                14.43045
     3   2     0.15408103347929997      24.148363246812856                12.30396
     4   1     0.15579738312245456      1.4021764481020906      3.0874199999999998
     5   1     0.15579738312245456      1.4021764481020906      7.1900700000000004
     6   2     0.15579738312245556      14.177625895385738                 5.06358
     7   3     0.46557116330374188       8.568724885775012                12.45093
     8   2     0.46557116330374188       8.568724885775012                10.19007
     9   2     0.46557116330374188       8.568724885775012      14.292730000000001
    10   2     0.46565862061040136      21.344000980182962                12.30396
    11   2     0.46739371110498174       16.98199284722849                 5.06358
    12   3     0.46739371110498262      4.2065433999448425      5.2105499999999996
    13   2     0.46739371110498262      4.2065433999448425      2.9496899999999999
    14   2     0.46739371110498262      4.2065433999448425      7.0523499999999997
    15   1     0.77714718869722532      5.7643485635065481                 10.3278
    16   1     0.77714718869722532      5.7643485635065481                14.43045
    17   2     0.77723308426626347      18.539802696003051                12.30396
    18   1     0.77899003908751052      7.0109103517875937      3.0874199999999998
    19   1     0.77899003908751052      7.0109103517875937      7.1900700000000004
    20   2     0.77899003908751197      19.786359799071239                 5.06358
    21   3      1.0887247758283263      2.9599862968766533                12.45093
    22   2      1.0887247758283263      2.9599862968766533                10.19007
    23   2      1.0887247758283263      2.9599862968766533      14.292730000000001
    24   2      1.0888169183478418      15.735432620685062                12.30396
    25   2      1.0905863670700391      22.590726750913991                 5.06358
    26   3      1.0905863670700382      9.8152773036303458      5.2105499999999996
    27   2      1.0905863670700382      9.8152773036303458      2.9496899999999999
    28   2      1.0905863670700382      9.8152773036303458      7.0523499999999997
    29   1      1.4003086099099029      0.1556162215586637                 10.3278
    30   1      1.4003086099099029      0.1556162215586637                14.43045
    31   2      1.4003866967908476      12.931064107104691                12.30396
    32   1      1.4021826950525667      12.619644255473098      3.0874199999999998
    33   1      1.4021826950525667      12.619644255473098      7.1900700000000004
    34   2      1.4021826950525662      25.395093702756743                 5.06358
    35   2      1.7119705308724238      10.126694031786702                12.30396
    36   3      1.7120517412286069      22.901977934882744                12.45093
    37   2      1.7120517412286069      22.901977934882744                10.19007
    38   2      1.7120517412286069      22.901977934882744      14.292730000000001
    39   2      1.7137790230350944      2.6485617600322029                 5.06358
    40   3      1.7137790230350947       15.42401120731585      5.2105499999999996
    41   2      1.7137790230350947       15.42401120731585      2.9496899999999999
    42   2      1.7137790230350947       15.42401120731585      7.0523499999999997
    43   2      2.0235403093154312      7.3223255182063314                12.30396
    44   1      2.0236324518349456       20.09777184201474                 10.3278
    45   1      2.0236324518349456       20.09777184201474                14.43045
    46   1      2.0253753510176224      18.228378159158602      3.0874199999999998
    47   1      2.0253753510176224      18.228378159158602      7.1900700000000004
    48   2       2.025375351017622      5.4529287118749536                 5.06358
    49   2       2.335124143397008      4.5179554428883417                12.30396
    50   3      2.3352022302779525      17.293403328434369                12.45093
    51   2      2.3352022302779525      17.293403328434369                10.19007
    52   2      2.3352022302779525      17.293403328434369      14.292730000000001
    53   2      2.3369716790001505      8.2572956637177057                 5.06358
    54   3      2.3369716790001509      21.032745111001351      5.2105499999999996
    55   2      2.3369716790001509      21.032745111001351      2.9496899999999999
    56   2      2.3369716790001509      21.032745111001351      7.0523499999999997
    57   2      2.6467017305281093      1.7135931762584469                12.30396
    58   1      2.6467860643595285       14.48903325311638                 10.3278
    59   1      2.6467860643595285       14.48903325311638                14.43045
    60   1       2.648568006982678      23.837112062844103      3.0874199999999998
    61   1       2.648568006982678      23.837112062844103      7.1900700000000004
    62   2      2.6485680069826789      11.061662615560458                 5.06358
    63   2      2.9582777559215927      24.460115748557275                12.30396
    64   3      2.9583636514906315      11.684670986486484                12.45093
    65   2      2.9583636514906315      11.684670986486484                10.19007
    66   2      2.9583636514906315      11.684670986486484      14.292730000000001
    67   2       2.960164334965206       13.86602956740321                 5.06358
    68   3      2.9601580880147309      1.0905879288076574      5.2105499999999996
    69   2      2.9601580880147309      1.0905879288076574      2.9496899999999999
    70   2      2.9601580880147309      1.0905879288076574      7.0523499999999997
    71   1      3.2699396768841136      8.8802946642180203                 10.3278
    72   1      3.2699396768841136      8.8802946642180203                14.43045
    73   2      3.2700255724531524      21.655748796714523                12.30396
    74   1       3.271760662947734       3.894947071962314      3.0874199999999998
    75   1       3.271760662947734       3.894947071962314      7.1900700000000004
    76   2      3.2717606629477354      16.670396519245962                 5.06358
    77   3       3.581517264015214       6.075932397588125                12.45093
    78   2       3.581517264015214       6.075932397588125                10.19007
    79   2       3.581517264015214       6.075932397588125      14.292730000000001
    80   2      3.5816015978466331      18.851372474446059                12.30396
    81   2      3.5833569909302612      19.474763471088714                 5.06358
    82   3      3.5833569909302621      6.6993140238050657      5.2105499999999996
    83   2      3.5833569909302621      6.6993140238050657      2.9496899999999999
    84   2      3.5833569909302621      6.6993140238050657      7.0523499999999997
    85   1      3.8930948511463157      3.2715701309582301                 10.3278
    86   1      3.8930948511463157      3.2715701309582301                14.43045
    87   2      3.8931791849777353      16.047010207816164                12.30396
    88   1       3.894953318912791      9.5036809756478178      3.0874199999999998
    89   1       3.894953318912791      9.5036809756478178      7.1900700000000004
    90   2      3.8949533189127901      22.279130422931463                 5.06358
    91   3      4.2046708765397982     0.46719380868976473                12.45093
    92   2      4.2046708765397982     0.46719380868976473                10.19007
    93   2      4.2046708765397982     0.46719380868976473      14.292730000000001
    94   2       4.204756772108837      13.242647941186268                12.30396
    95   2      4.2065496468953185      25.083497374774215                 5.06358
    96   3      4.2065496468953176       12.30804792749057      5.2105499999999996
    97   2      4.2065496468953176       12.30804792749057      2.9496899999999999
    98   2      4.2065496468953176       12.30804792749057      7.0523499999999997
    99   1      4.5162469019332798      23.213716380988593                 10.3278
   100   1      4.5162469019332798      23.213716380988593                14.43045
   101   2      4.5163327975023195      10.438271618917803                12.30396
   102   1      4.5181459748778465      15.112414879333322      3.0874199999999998
   103   1      4.5181459748778465      15.112414879333322      7.1900700000000004
   104   2      4.5181397279273705      2.3369732407377688                 5.06358
   105   2      4.8279103846334213      7.6339093522879091                12.30396
   106   3        4.82799471846484      20.409349429145838                12.45093
   107   2        4.82799471846484      20.409349429145838                10.19007
   108   2        4.82799471846484      20.409349429145838      14.292730000000001
   109   2      4.8297423028603736      5.1413323838924256                 5.06358
   110   3      4.8297423028603745      17.916781831176074      5.2105499999999996
   111   2      4.8297423028603745      17.916781831176074      2.9496899999999999
   112   2      4.8297423028603745      17.916781831176074      7.0523499999999997
   113   2      5.1394864100269029      4.8295330300194426                12.30396
   114   1      5.1395723055959417      17.604987162515947                 10.3278
   115   1      5.1395723055959417      17.604987162515947                14.43045
   116   1      5.1413386308429008      20.721148783018823      3.0874199999999998
   117   1      5.1413386308429008      20.721148783018823      7.1900700000000004
   118   2      5.1413386308429025      7.9456993357351786                 5.06358
   119   2      5.4510639971580046      2.0251707633895482                12.30396
   120   3      5.4511561396775177      14.800617087197956                12.45093
   121   2      5.4511561396775177      14.800617087197956                10.19007
   122   2      5.4511561396775177      14.800617087197956      14.292730000000001
   123   2      5.4529349588254297       10.75006628757793                 5.06358
   124   3      5.4529349588254306      23.525515734861575      5.2105499999999996
   125   2      5.4529349588254306      23.525515734861575      2.9496899999999999
   126   2      5.4529349588254306      23.525515734861575      7.0523499999999997
   127   2       5.762640022551488      24.771693335688379                12.30396
   128   1      5.7627259181205259      11.996248573617587                 10.3278
   129   1      5.7627259181205259      11.996248573617587                14.43045
   130   1      5.7645250398574825     0.77899160082512908      3.0874199999999998
   131   1      5.7645250398574825     0.77899160082512908      7.1900700000000004
   132   2      5.7645312868079586      13.554433239420682                 5.06358
   133   2       6.074223856633064      21.967323260370385                12.30396
   134   3      6.0743097522021028      9.1918784982995962                12.45093
   135   2      6.0743097522021028      9.1918784982995962                10.19007
   136   2      6.0743097522021028      9.1918784982995962      14.292730000000001
   137   2      6.0761276147904857      16.358800191263434                 5.06358
   138   3      6.0761213678400097      3.5833585526678808      5.2105499999999996
   139   2      6.0761213678400097      3.5833585526678808      2.9496899999999999
   140   2      6.0761213678400097      3.5833585526678808      7.0523499999999997
   141   1      6.3858795306451093      6.3875099847192258                 10.3278
   142   1      6.3858795306451093      6.3875099847192258                14.43045
   143   2      6.3859716731646223      19.162956308527633                12.30396
   144   1      6.3877239427730146      6.3877176958225386      3.0874199999999998
   145   1      6.3877239427730146      6.3877176958225386      7.1900700000000004
   146   2      6.3877239427730137      19.163167143106183                 5.06358
   147   3      6.6974633647266861      3.5831399094012366                12.45093
   148   2      6.6974633647266861      3.5831399094012366                10.19007
   149   2      6.6974633647266861      3.5831399094012366      14.292730000000001
   150   2      6.6975414516076306      16.358587794947265                12.30396
   151   2      6.6993202707555408      21.967534094948938                 5.06358
   152   3      6.6993202707555417      9.1920846476652898      5.2105499999999996
   153   2      6.6993202707555417      9.1920846476652898      2.9496899999999999
   154   2      6.6993202707555417      9.1920846476652898      7.0523499999999997
   155   1      7.0090409518577879     0.77877764277134187                 10.3278
   156   1      7.0090409518577879     0.77877764277134187                14.43045
   157   2      7.0091252856892075      13.554217719629275                12.30396
   158   1      7.0109165987380706      11.996451599508042      3.0874199999999998
   159   1      7.0109165987380706      11.996451599508042      7.1900700000000004
   160   2      7.0109165987380715      24.771901046791687                 5.06358
   161   3      7.3206169772512695      23.525300215070168                12.45093
   162   2      7.3206169772512695      23.525300215070168                10.19007
   163   2      7.3206169772512695      23.525300215070168      14.292730000000001
   164   2      7.3207028728203083      10.749855452999379                12.30396
   165   2      7.3225066797701217      2.0253769127552408                 5.06358
   166   3      7.3225129267205977      14.800818551350792      5.2105499999999996
   167   2      7.3225129267205977      14.800818551350792      2.9496899999999999
   168   2      7.3225129267205977      14.800818551350792      7.0523499999999997
   169   2      7.6322788982137917      7.9454791307309156                12.30396
   170   1      7.6323647937828314      20.720933263227419                 10.3278
   171   1      7.6323647937828314      20.720933263227419                14.43045
   172   1      7.6341092547031248      17.605185503193542      3.0874199999999998
   173   1      7.6341092547031248      17.605185503193542      7.1900700000000004
   174   2      7.6341030077526506      4.8297438645979929                 5.06358
   175   2      7.9438564853448925      5.1411168641010203                12.30396
   176   3      7.9439408191763121      17.916556940958952                12.45093
   177   2      7.9439408191763121      17.916556940958952                10.19007
   178   2      7.9439408191763121      17.916556940958952      14.292730000000001
   179   2      7.9457055826856537      7.6341030077526497                 5.06358
   180   3      7.9457055826856537      20.409552455036298      5.2105499999999996
   181   2      7.9457055826856537      20.409552455036298      2.9496899999999999
   182   2      7.9457055826856537      20.409552455036298      7.0523499999999997
   183   2      8.2554403194264694      2.3367467887830307                12.30396
   184   1      8.2555184063074147      15.112194674329059                 10.3278
   185   1      8.2555184063074147      15.112194674329059                14.43045
   186   1      8.2573019106681809       23.21391940687905      3.0874199999999998
   187   1      8.2573019106681809       23.21391940687905      7.1900700000000004
   188   2      8.2573019106681826      10.438469959595402                 5.06358
   189   2      8.5670163448199528      25.083269361081857                12.30396
   190   3      8.5671022403889907      12.307824599011068                12.45093
   191   2      8.5671022403889907      12.307824599011068                10.19007
   192   2      8.5671022403889907      12.307824599011068      14.292730000000001
   193   2      8.5688982386507089      13.242836911438152                 5.06358
   194   3      8.5688919917002337     0.46739527284260135      5.2105499999999996
   195   2      8.5688919917002337     0.46739527284260135      2.9496899999999999
   196   2      8.5688919917002337     0.46739527284260135      7.0523499999999997
   197   1      8.8786720188319972      9.5034560854306971                 10.3278
   198   1      8.8786720188319972      9.5034560854306971                14.43045
   199   2       8.878764161351512      22.278902409239105                12.30396
   200   1      8.8804883196827618      3.2717622246853533      3.0874199999999998
   201   1      8.8804883196827618      3.2717622246853533      7.1900700000000004
   202   2      8.8804945666332369      16.047203863280902                 5.06358
   203   3      9.1902558529135732      6.6990860101127083                12.45093
   204   2      9.1902558529135732      6.6990860101127083                10.19007
   205   2      9.1902558529135732      6.6990860101127083      14.292730000000001
   206   2      9.1903339397945185      19.474533895658734                12.30396
   207   2      9.1920908946157649      18.851570815123658                 5.06358
   208   3      9.1920846476652898       6.076129176528104      5.2105499999999996
   209   2      9.1920846476652898       6.076129176528104      2.9496899999999999
   210   2      9.1920846476652898       6.076129176528104      7.0523499999999997
   211   1      9.5018256313565814      3.8947174965323383                 10.3278
   212   1      9.5018256313565814      3.8947174965323383                14.43045
   213   2      9.5019177738760963      16.670163820340747                12.30396
   214   1      9.5036872225982947      8.8804883196827618      3.0874199999999998
   215   1      9.5036872225982947      8.8804883196827618      7.1900700000000004
   216   2      9.5036872225982947       21.65593776696641                 5.06358
   217   3      9.8134094654381574      1.0903474212143487                12.45093
   218   2      9.8134094654381574      1.0903474212143487                10.19007
   219   2      9.8134094654381574      1.0903474212143487      14.292730000000001
   220   2      9.8134953610071971      13.865801553710853                12.30396
   221   2      9.8152835505808227      24.460304718809162                 5.06358
   222   3      9.8152835505808209      11.684855271525514      5.2105499999999996
   223   2      9.8152835505808209      11.684855271525514      2.9496899999999999
   224   2      9.8152835505808209      11.684855271525514      7.0523499999999997
   225   2      10.125071386400679      11.061425231442385                12.30396
   226   1      10.125157281969718      23.836879363938891                 10.3278
   227   1      10.125157281969718      23.836879363938891                14.43045
   228   1      10.126879878563349      14.489222223368264      3.0874199999999998
   229   1      10.126879878563349      14.489222223368264      7.1900700000000004
   230   2      10.126873631612874      1.7137805847727137                 5.06358
   231   2      10.436648973531781      8.2570629648124925                12.30396
   232   3      10.436733307363202      21.032503041670424                12.45093
   233   2      10.436733307363202      21.032503041670424                10.19007
   234   2      10.436733307363202      21.032503041670424      14.292730000000001
   235   2      10.438469959595402      4.5181475366154649                 5.06358
   236   3      10.438476206545877      17.293589175211018      5.2105499999999996
   237   2      10.438476206545877      17.293589175211018      2.9496899999999999
   238   2      10.438476206545877      17.293589175211018      7.0523499999999997
   239   2      10.748224998925263      5.4526866425440268                12.30396
   240   1      10.748310894494301      18.228140775040529                 10.3278
   241   1      10.748310894494301      18.228140775040529                14.43045
   242   1      10.750072534528405       20.09795612705377      3.0874199999999998
   243   1      10.750072534528405       20.09795612705377      7.1900700000000004
   244   2       10.75006628757793       7.322514488458217                 5.06358
   245   2      11.059802586056364      2.6483243759141315                12.30396
   246   3      11.059894728575879      15.423770699722541                12.45093
   247   2      11.059894728575879      15.423770699722541                10.19007
   248   2      11.059894728575879      15.423770699722541      14.292730000000001
   249   2      11.061668862510933      10.126873631612874                 5.06358
   250   3      11.061668862510935      22.902323078896522      5.2105499999999996
   251   2      11.061668862510935      22.902323078896522      2.9496899999999999
   252   2      11.061668862510935      22.902323078896522      7.0523499999999997
   253   1      11.371464507018885      12.619402186142169                 10.3278
   254   1      11.371464507018885      12.619402186142169                14.43045
   255   2      11.371556649538398      25.394848509950577                12.30396
   256   1      11.373258943542986     0.15579894486007365      3.0874199999999998
   257   1      11.373258943542986     0.15579894486007365      7.1900700000000004
   258   2      11.373265190493461      12.931240583455624                 5.06358
   259   3      11.683048341100461      9.8150321108241805                12.45093
   260   2      11.683048341100461      9.8150321108241805                10.19007
   261   2      11.683048341100461      9.8150321108241805      14.292730000000001
   262   2      11.683126427981406       22.59047999637021                12.30396
   263   2      11.684861518475989      15.735607535298376                 5.06358
   264   3      11.684855271525514      2.9601658967028248      5.2105499999999996
   265   2      11.684855271525514      2.9601658967028248      2.9496899999999999
   266   2      11.684855271525514      2.9601658967028248      7.0523499999999997
   267   1      11.994618119543469      7.0106635972438092                 10.3278
   268   1      11.994618119543469      7.0106635972438092                14.43045
   269   2      11.994710262062982      19.786109921052216                12.30396
   270   1      11.996451599508042      5.7645328485455769      3.0874199999999998
   271   1      11.996451599508042      5.7645328485455769      7.1900700000000004
   272   2      11.996457846458517       18.53997448714113                 5.06358
   273   3      12.306201953625047      4.2062935219258204                12.45093
   274   2      12.306201953625047      4.2062935219258204                10.19007
   275   2      12.306201953625047      4.2062935219258204      14.292730000000001
   276   2      12.306280040505991      16.981741407471848                12.30396
   277   2      12.308054174441047      21.344341438983882                 5.06358
   278   3       12.30804792749057      8.5688998003883281      5.2105499999999996
   279   2       12.30804792749057      8.5688998003883281      2.9496899999999999
   280   2       12.30804792749057      8.5688998003883281      7.0523499999999997
   281   2      12.617863874587568      14.177371332153859                12.30396
   282   1      12.617949770156606       1.401926570083069                 10.3278
   283   1      12.617949770156606       1.401926570083069                14.43045
   284   1      12.619650502423573      11.373258943542984      3.0874199999999998
   285   1      12.619650502423573      11.373258943542984      7.1900700000000004
   286   2      12.619650502423573      24.148708390826631                 5.06358
   287   2      12.929441461718667      11.373009065523963                12.30396
   288   3      12.929525795550088      24.148449142381896                12.45093
   289   2      12.929525795550088      24.148449142381896                10.19007
   290   2      12.929525795550088      24.148449142381896      14.292730000000001
   291   2      12.931240583455626       1.402184256790185                 5.06358
   292   3      12.931246830406101      14.177625895385736      5.2105499999999996
   293   2      12.931246830406101      14.177625895385736      2.9496899999999999
   294   2      12.931246830406101      14.177625895385736      7.0523499999999997
   295   2      13.241017487112151       8.568632743255499                12.30396
   296   1      13.241103382681191      21.344086875752001                 10.3278
   297   1      13.241103382681191      21.344086875752001                14.43045
   298   1      13.242843158388629       16.98199284722849      3.0874199999999998
   299   1      13.242843158388629       16.98199284722849      7.1900700000000004
   300   2      13.242836911438154      4.2065512086329377                 5.06358
   301   2      13.552595074243252      5.7642704766256037                12.30396
   302   3      13.552679408074672      18.539710553483534                12.45093
   303   2      13.552679408074672      18.539710553483534                10.19007
   304   2      13.552679408074672      18.539710553483534      14.292730000000001
   305   2      13.554433239420682      7.0109181604756881                 5.06358
   306   3      13.554439486371159      19.786359799071242      5.2105499999999996
   307   2      13.554439486371159      19.786359799071242      2.9496899999999999
   308   2      13.554439486371159      19.786359799071242      7.0523499999999997
   309   1      13.864256995205773      15.735348286853641                 10.3278
   310   1      13.864256995205773      15.735348286853641                14.43045
   311   2      13.864342890774811      2.9599035247828511                12.30396
   312   1      13.866035814353683      22.590726750913991      3.0874199999999998
   313   1      13.866035814353683      22.590726750913991      7.1900700000000004
   314   2      13.866029567403208      9.8152851123184384                 5.06358
   315   3      14.175840829287353      12.930978211535653                12.45093
   316   2      14.175840829287353      12.930978211535653                10.19007
   317   2      14.175840829287353      12.930978211535653      14.292730000000001
   318   2      14.175918916168294      0.1555272025143864                12.30396
   319   2      14.177632142336213      12.619644255473096                 5.06358
   320   3      14.177632142336213      25.395093702756743      5.2105499999999996
   321   2      14.177632142336213      25.395093702756743      2.9496899999999999
   322   2      14.177632142336213      25.395093702756743      7.0523499999999997
   323   1      14.487410607730357      10.126609697955281                 10.3278
   324   1      14.487410607730357      10.126609697955281                14.43045
   325   2      14.487502750249872      22.902056021763691                12.30396
   326   1      14.489222223368266      2.6485695687202973      3.0874199999999998
   327   1      14.489222223368266      2.6485695687202973      7.1900700000000004
   328   2      14.489228470318741      15.424011207315848                 5.06358
   329   3      14.798994441811935      7.3222396226372926                12.45093
   330   2      14.798994441811935      7.3222396226372926                10.19007
   331   2      14.798994441811935      7.3222396226372926      14.292730000000001
   332   2      14.799072528692877       20.09768750818332                12.30396
   333   2      14.800824798301271      18.228378159158602                 5.06358
   334   3      14.800818551350792      5.4529365205630489      5.2105499999999996
   335   2      14.800818551350792      5.4529365205630489      2.9496899999999999
   336   2      14.800818551350792      5.4529365205630489      7.0523499999999997
   337   2      15.110656362774455      17.293317432865329                12.30396
   338   1      15.110742258343494      4.5178726707945414                 10.3278
   339   1      15.110742258343494      4.5178726707945414                14.43045
   340   1       15.11241487933332      8.2573034724058001      3.0874199999999998
   341   1       15.11241487933332      8.2573034724058001      7.1900700000000004
   342   2      15.112421126283795      21.032745111001351                 5.06358
   343   2      15.422233949905557      14.488955166235435                12.30396
   344   3      15.422312036786501      1.7135041572141707                12.45093
   345   2      15.422312036786501      1.7135041572141707                10.19007
   346   2      15.422312036786501      1.7135041572141707      14.292730000000001
   347   2      15.424017454266325      23.837112062844103                 5.06358
   348   3      15.424011207315848      11.061670424248552      5.2105499999999996
   349   2      15.424011207315848      11.061670424248552      2.9496899999999999
   350   2      15.424011207315848      11.061670424248552      7.0523499999999997
   351   2      15.733809975299039      11.684578843966969                12.30396
   352   1      15.733895870868077      24.460032976463474                 10.3278
   353   1      15.733895870868077      24.460032976463474                14.43045
   354   1      15.735613782248853       13.86602956740321      3.0874199999999998
   355   1      15.735613782248853       13.86602956740321      7.1900700000000004
   356   2      15.735607535298378      1.0905879288076572                 5.06358
   357   2       16.04538756243014      8.8802165773370749                12.30396
   358   3       16.04547189626156       21.65565665419501                12.45093