(written by ASE)

1582 atoms
3 atom types

0.0      42.418311629001145  xlo xhi
0.0      42.418311629001145  ylo yhi
0.0      61.480760591600003  zlo zhi

Masses

     1       137.3269999646734 # Ba
     2      15.998999995884349 # O
     3      47.866999987686484 # Ti

Atoms # atomic

     1   3    0.078823942282729903      1.4090578119875028                12.45093
     2   2    0.078823942282729903      1.4090578119875028                10.19007
     3   2    0.078823942282729903      1.4090578119875028      14.292730000000001
     4   2    0.079504083470571141      22.616839339304498                12.30396
     5   2    0.093846313829946765      19.801465916660831                 5.06358
     6   1    0.093846313829946459      41.010626540770872      3.0874199999999998
     7   1    0.093846313829946459      41.010626540770872      7.1900700000000004
     8   1     0.26660405698338496      4.2244199459807499                 10.3278
     9   1     0.26660405698338496      4.2244199459807499                14.43045
    10   2     0.26729078321730465      25.432208999064692                12.30396
    11   3     0.28153800076897606      38.195251236685472      5.2105499999999996
    12   2     0.28153800076897606      38.195251236685472      2.9496899999999999
    13   2     0.28153800076897606      38.195251236685472      7.0523499999999997
    14   2     0.28153800076897517      16.986090612575424                 5.06358
    15   3     0.45439075673011825      7.0397896057409435                12.45093
    16   2     0.45439075673011825      7.0397896057409435                10.19007
    17   2     0.45439075673011825      7.0397896057409435      14.292730000000001
    18   2     0.45507748296404049      28.247578658824885                12.30396
    19   2     0.46922968770800061      14.170715308490022                 5.06358
    20   1     0.46922968770799972      35.379875932600065      3.0874199999999998
    21   1     0.46922968770799972      35.379875932600065      7.1900700000000004
    22   1     0.64216993070990558      9.8551658505472162                 10.3278
    23   1     0.64216993070990558      9.8551658505472162                14.43045
    24   2     0.64285007189774734      31.062947377864209                12.30396
    25   3     0.65692137464702693      32.564500628514658      5.2105499999999996
    26   2     0.65692137464702693      32.564500628514658      2.9496899999999999
    27   2     0.65692137464702693      32.564500628514658      7.0523499999999997
    28   2     0.65692137464702904      11.355340004404617                 5.06358
    29   3     0.82995004541055939      12.670527984540463                12.45093
    30   2     0.82995004541055939      12.670527984540463                10.19007
    31   2     0.82995004541055939      12.670527984540463      14.292730000000001
    32   2     0.83063677164447725      33.878317037624406                12.30396
    33   2     0.84461306158605542      8.5399647003192118                 5.06358
    34   1     0.84461306158605653      29.749125324429258      3.0874199999999998
    35   1     0.84461306158605653      29.749125324429258      7.1900700000000004
    36   1      1.0177367451572941      15.485897644300657                 10.3278
    37   1      1.0177367451572941      15.485897644300657                14.43045
    38   2       1.018423471391213      36.693686697384599                12.30396
    39   3       1.032304748525082      26.933750020343854      5.2105499999999996
    40   2       1.032304748525082      26.933750020343854      2.9496899999999999
    41   2       1.032304748525082      26.933750020343854      7.0523499999999997
    42   2      1.0323047485250818      5.7245893962338084                 5.06358
    43   3      1.2055159191370819      18.299891970151275                12.45093
    44   2      1.2055159191370819      18.299891970151275                10.19007
    45   2      1.2055159191370819      18.299891970151275      14.292730000000001
    46   2      1.2062035860918683      39.509048831377847                12.30396
    47   2      1.2199964354641093      2.9092140921484049                 5.06358
    48   1      1.2199964354641093      24.118374716258447      3.0874199999999998
    49   1      1.2199964354641093      24.118374716258447      7.1900700000000004
    50   2      1.3926158926498897      42.325793825047612                12.30396
    51   1      1.3933026188838129      21.115261629911469                 10.3278
    52   1      1.3933026188838129      21.115261629911469                14.43045
    53   3      1.4076881224031348      21.302999412173044      5.2105499999999996
    54   2      1.4076881224031348      21.302999412173044      2.9496899999999999
    55   2      1.4076881224031348      21.302999412173044      7.0523499999999997
    56   2      1.4076805966361892    0.093845373109079339                 5.06358
    57   2      1.5803950666296809      2.7228488216337987                12.30396
    58   3      1.5810817928635998      23.930637874717739                12.45093
    59   2      1.5810817928635998      23.930637874717739                10.19007
    60   2      1.5810817928635998      23.930637874717739      14.292730000000001
    61   2      1.5953798093421629      39.696784732197685                 5.06358
    62   1      1.5953798093421632       18.48762410808764      3.0874199999999998
    63   1      1.5953798093421632       18.48762410808764      7.1900700000000004
    64   2      1.7681817663764146      5.5382184813939928                12.30396
    65   1      1.7688619075642555      26.746000008710986                 10.3278
    66   1      1.7688619075642555      26.746000008710986                14.43045
    67   3      1.7830714962811898      15.672248804002239      5.2105499999999996
    68   2      1.7830714962811898      15.672248804002239      2.9496899999999999
    69   2      1.7830714962811898      15.672248804002239      7.0523499999999997
    70   2      1.7830714962811889      36.881409428112285                 5.06358
    71   2      1.9559618810770694       8.353580615387239                12.30396
    72   3      1.9566486073109872      29.561369668471183                12.45093
    73   2      1.9566486073109872      29.561369668471183                10.19007
    74   2      1.9566486073109872      29.561369668471183      14.292730000000001
    75   2      1.9707631832202162      34.066034124026878                 5.06358
    76   1       1.970763183220217      12.856873499916832      3.0874199999999998
    77   1       1.970763183220217      12.856873499916832      7.1900700000000004
    78   2      2.1437485808238028      11.168950275147433                12.30396
    79   1      2.1444353070577225      32.376739328231373                 10.3278
    80   1      2.1444353070577225      32.376739328231373                14.43045
    81   3      2.1584548701592445      10.041498195831428      5.2105499999999996
    82   2      2.1584548701592445      10.041498195831428      2.9496899999999999
    83   2      2.1584548701592445      10.041498195831428      7.0523499999999997
    84   2      2.1584548701592432      31.250658819941471                 5.06358
    85   2      2.3315277548035893      13.984326519953706                12.30396
    86   3      2.3322078959914299        35.1921080472707                12.45093
    87   2      2.3322078959914299        35.1921080472707                10.19007
    88   2      2.3322078959914299        35.1921080472707      14.292730000000001
    89   2      2.3461465570982711      28.435283515856071                 5.06358
    90   1      2.3461465570982702      7.2261228917460247      3.0874199999999998
    91   1      2.3461465570982702      7.2261228917460247      7.1900700000000004
    92   2      2.5193078695042437      16.799688653946951                12.30396
    93   1      2.5199945957381633      38.007477707030894                 10.3278
    94   1      2.5199945957381633      38.007477707030894                14.43045
    95   3      2.5338382440372977      4.4107475876606204      5.2105499999999996
    96   2      2.5338382440372977      4.4107475876606204      2.9496899999999999
    97   2      2.5338382440372977      4.4107475876606204      7.0523499999999997
    98   2      2.5338382440372982      25.619908211770664                 5.06358
    99   3      2.7064144280631361      40.824216115654586                12.45093
   100   2      2.7064144280631361      40.824216115654586                10.19007
   101   2      2.7064144280631361      40.824216115654586      14.292730000000001
   102   2      2.7070936285301102      19.613690505564517                12.30396
   103   2      2.7215299309763239       22.80453290768526                 5.06358
   104   1      2.7215224052093778      1.5953788686212951      3.0874199999999998
   105   1      2.7215224052093778      1.5953788686212951      7.1900700000000004
   106   1      2.8941936020429235      1.2212711122407689                 10.3278
   107   1      2.8941936020429235      1.2212711122407689                14.43045
   108   2      2.8948803282768418       22.42906016532471                12.30396
   109   3      2.9092216179153545      41.198318227709905      5.2105499999999996
   110   2      2.9092216179153545      41.198318227709905      2.9496899999999999
   111   2      2.9092216179153545      41.198318227709905      7.0523499999999997
   112   2      2.9092216179153509      19.989157603599857                 5.06358
   113   3      3.0819803017896574      4.0366407720009629                12.45093
   114   2      3.0819803017896574      4.0366407720009629                10.19007
   115   2      3.0819803017896574      4.0366407720009629      14.292730000000001
   116   2      3.0826604429774993      25.244422299317957                12.30396
   117   2      3.0969133048543775      17.173782299514453                 5.06358
   118   1      3.0969133048543758      38.382942923624498      3.0874199999999998
   119   1      3.0969133048543758      38.382942923624498      7.1900700000000004
   120   1      3.2697528907233648      6.8520094910402882                 10.3278
   121   1      3.2697528907233648      6.8520094910402882                14.43045
   122   2      3.2704396169572845      28.059798544124227                12.30396
   123   3       3.284604991793405      35.567567619539091      5.2105499999999996
   124   2       3.284604991793405      35.567567619539091      2.9496899999999999
   125   2       3.284604991793405      35.567567619539091      7.0523499999999997
   126   2      3.2846049917934059      14.358406995429048                 5.06358
   127   3      3.4575395904700996      9.6673791508004836                12.45093
   128   2      3.4575395904700996      9.6673791508004836                10.19007
   129   2      3.4575395904700996      9.6673791508004836      14.292730000000001
   130   2      3.4582197316579375      30.875160678117474                12.30396
   131   2      3.4722966787324325      11.543031691343645                 5.06358
   132   1      3.4722966787324325      32.752192315453691      3.0874199999999998
   133   1      3.4722966787324325      32.752192315453691      7.1900700000000004
   134   1      3.6453197051707535      12.482741284793729                 10.3278
   135   1      3.6453197051707535      12.482741284793729                14.43045
   136   2      3.6460064314046736      33.690530337877668                12.30396
   137   3      3.6599883656714578      29.936817011368284      5.2105499999999996
   138   2      3.6599883656714578      29.936817011368284      2.9496899999999999
   139   2      3.6599883656714578      29.936817011368284      7.0523499999999997
   140   2      3.6599883656714596      8.7276563872582411                 5.06358
   141   3      3.8331064049174874      15.298110944553923                12.45093
   142   2      3.8331064049174874      15.298110944553923                10.19007
   143   2      3.8331064049174874      15.298110944553923      14.292730000000001
   144   2      3.8337931311514053      36.505899997637862                12.30396
   145   2      3.8476800526104862      5.9122810831728358                 5.06358
   146   1      3.8476800526104875       27.12144170728288      3.0874199999999998
   147   1      3.8476800526104875       27.12144170728288      7.1900700000000004
   148   2      4.0201988526633539      39.322637465540687                12.30396
   149   1      4.0208855788972739      18.113487189360196                 10.3278
   150   1      4.0208855788972739      18.113487189360196                14.43045
   151   3      4.0353717395495128      24.306066403197477      5.2105499999999996
   152   2      4.0353717395495128      24.306066403197477      2.9496899999999999
   153   2      4.0353717395495128      24.306066403197477      7.0523499999999997
   154   2      4.0353642137825663      3.0969123641335101                 5.06358
   155   2      4.2079855524100864      42.138007125300881                12.30396
   156   3      4.2086647528770591      20.927481515210811                12.45093
   157   2      4.2086647528770591      20.927481515210811                10.19007
   158   2      4.2086647528770591      20.927481515210811      14.292730000000001
   159   2      4.2230559007215938     0.28153706004810641                 5.06358
   160   1      4.2230634264885403       21.49069109911207      3.0874199999999998
   161   1      4.2230634264885403       21.49069109911207      7.1900700000000004
   162   2      4.3957647263898743      2.5350621218870648                12.30396
   163   1      4.3964514526237943      23.742851174971008                 10.3278
   164   1      4.3964514526237943      23.742851174971008                14.43045
   165   3       4.410755113427566       18.67531579502667      5.2105499999999996
   166   2       4.410755113427566       18.67531579502667      2.9496899999999999
   167   2       4.410755113427566       18.67531579502667      7.0523499999999997
   168   2      4.4107551134275669      39.884476419136718                 5.06358
   169   2      4.5835514261366086      5.3504317816472593                12.30396
   170   3      4.5842381523705278      26.558220834731198                12.45093
   171   2      4.5842381523705278      26.558220834731198                10.19007
   172   2      4.5842381523705278      26.558220834731198      14.292730000000001
   173   2      4.5984468003665917      37.069101115051311                 5.06358
   174   1      4.5984468003665944      15.859940490941263      3.0874199999999998
   175   1      4.5984468003665944      15.859940490941263      7.1900700000000004
   176   2      4.7795534412269358      8.1562079699916765                12.30396
   177   1      4.7802401674608541      29.363997023075619                 10.3278
   178   1      4.7802401674608541      29.363997023075619                14.43045
   179   3      4.7861384873056219      13.044565186855859      5.2105499999999996
   180   2      4.7861384873056219      13.044565186855859      2.9496899999999999
   181   2      4.7861384873056219      13.044565186855859      7.0523499999999997
   182   2      4.7861384873056219      34.253725810965904                 5.06358
   183   2       4.959110714817049      10.981170160446778                12.30396
   184   3      4.9597974410509691      32.188959213530715                12.45093
   185   2      4.9597974410509691      32.188959213530715                10.19007
   186   2      4.9597974410509691      32.188959213530715      14.292730000000001
   187   2      4.9738301742446467        31.4383505068805                 5.06358
   188   1      4.9738301742446476      10.229189882770456      3.0874199999999998
   189   1      4.9738301742446476      10.229189882770456      7.1900700000000004
   190   2      5.1468974145637834      13.796539820206972                12.30396
   191   1      5.1475841407977025      35.004328873290909                 10.3278
   192   1      5.1475841407977025      35.004328873290909                14.43045
   193   3      5.1615218611836751      7.4138145786850522      5.2105499999999996
   194   2      5.1615218611836751      7.4138145786850522      2.9496899999999999
   195   2      5.1615218611836751      7.4138145786850522      7.0523499999999997
   196   2      5.1615218611836742      28.622975202795093                 5.06358
   197   3      5.3339973880765941      37.821059756147655                12.45093
   198   2      5.3339973880765941      37.821059756147655                10.19007
   199   2      5.3339973880765941      37.821059756147655      14.292730000000001
   200   2      5.3346841143105168      16.611909479967164                12.30396
   201   2      5.3492135481227026      25.807599898709693                 5.06358
   202   1      5.3492060223557543      4.5984458596457261      3.0874199999999998
   203   1      5.3492060223557543      4.5984458596457261      7.1900700000000004
   204   1      5.5217765620563855      40.636436000953928                 10.3278
   205   1      5.5217765620563855      40.636436000953928                14.43045
   206   2      5.5224642290111703      19.427271613960411                12.30396
   207   3      5.5368977092947818      1.7830705555603217      5.2105499999999996
   208   2      5.5368977092947818      1.7830705555603217      2.9496899999999999
   209   2      5.5368977092947818      1.7830705555603217      7.0523499999999997
   210   2      5.5369052350617292      22.992224594624286                 5.06358
   211   3      5.7095557360361706      1.0334909975401145                12.45093
   212   2      5.7095557360361706      1.0334909975401145                10.19007
   213   2      5.7095557360361706      1.0334909975401145      14.292730000000001
   214   2      5.7102424622700907      22.241280050624056                12.30396
   215   2      5.7245969220007549      20.176849290538883                 5.06358
   216   1      5.7245969220007513      41.386009914648923      3.0874199999999998
   217   1      5.7245969220007513      41.386009914648923      7.1900700000000004
   218   1      5.8973424357829041      3.8488606573003077                 10.3278
   219   1      5.8973424357829041      3.8488606573003077                14.43045
   220   2      5.8980225769707451      25.056642184617303                12.30396
   221   3      5.9122886089397833      38.570634610563523      5.2105499999999996
   222   2      5.9122886089397833      38.570634610563523      2.9496899999999999
   223   2      5.9122886089397833      38.570634610563523      7.0523499999999997
   224   2      5.9122886089397824      17.361473986453479                 5.06358
   225   3      6.0851225504835593      6.6642227912935548                12.45093
   226   2      6.0851225504835593      6.6642227912935548                10.19007
   227   2      6.0851225504835593      6.6642227912935548      14.292730000000001
   228   2      6.0858092767174785      27.872011844377496                12.30396
   229   2      6.0999802958788099      14.546098682368076                 5.06358
   230   1      6.0999802958788081      35.755259306478116      3.0874199999999998
   231   1      6.0999802958788081      35.755259306478116      7.1900700000000004
   232   1      6.2729092502302928      9.4795924510537493                 10.3278
   233   1      6.2729092502302928      9.4795924510537493                14.43045
   234   2      6.2735959764642102       30.68738150413769                12.30396
   235   3      6.2876719828178365      32.939884002392716      5.2105499999999996
   236   2      6.2876719828178365      32.939884002392716      2.9496899999999999
   237   2      6.2876719828178365      32.939884002392716      7.0523499999999997
   238   2      6.2876719828178365      11.730723378282672                 5.06358
   239   3      6.4606884242100797      12.294968695860021                12.45093
   240   2      6.4606884242100797      12.294968695860021                10.19007
   241   2      6.4606884242100797      12.294968695860021      14.292730000000001
   242   2      6.4613760911648654      33.502743638130937                12.30396
   243   2      6.4753636697568631      8.9153480741972668                 5.06358
   244   1      6.4753636697568631      30.124508698307309      3.0874199999999998
   245   1      6.4753636697568631      30.124508698307309      7.1900700000000004
   246   2      6.6477883977228913      36.319488631800709                12.30396
   247   1      6.6484685389107341      15.110330829853268                 10.3278
   248   1      6.6484685389107341      15.110330829853268                14.43045
   249   3      6.6630553566958888      27.309133394221906      5.2105499999999996
   250   2      6.6630553566958888      27.309133394221906      2.9496899999999999
   251   2      6.6630553566958888      27.309133394221906      7.0523499999999997
   252   2       6.663047830928944      6.0999793551579424                 5.06358
   253   2      6.8355750974696257      39.134858291560903                12.30396
   254   3      6.8362552386574693      17.925700489613462                12.45093
   255   2      6.8362552386574693      17.925700489613462                10.19007
   256   2      6.8362552386574693      17.925700489613462      14.292730000000001
   257   2      6.8507395178679706      3.2846040510725372                 5.06358
   258   1      6.8507470436349189      24.493758090136502      3.0874199999999998
   259   1      6.8507470436349189      24.493758090136502      7.1900700000000004
   260   2      7.0233552121702827       41.95022042555415                12.30396
   261   1      7.0240419384042019      20.741070149373655                 10.3278
   262   1      7.0240419384042019      20.741070149373655                14.43045
   263   3      7.0384387305739438      21.678382786051099      5.2105499999999996
   264   2      7.0384387305739438      21.678382786051099      2.9496899999999999
   265   2      7.0384387305739438      21.678382786051099      7.0523499999999997
   266   2      7.0384312048069972     0.46922874698713346                 5.06358
   267   2      7.2111409711961469      2.3472829479072788                12.30396
   268   3       7.211821112383987       23.55506447522427                12.45093
   269   2       7.211821112383987       23.55506447522427                10.19007
   270   2       7.211821112383987       23.55506447522427      14.292730000000001
   271   2      7.2261304175129677      40.072168106075736                 5.06358
   272   1      7.2261304175129712      18.863007481965695      3.0874199999999998
   273   1      7.2261304175129712      18.863007481965695      7.1900700000000004
   274   2      7.3989135601298548       5.162651666946604                12.30396
   275   1       7.399600286363774      26.370440720030548                 10.3278
   276   1       7.399600286363774      26.370440720030548                14.43045
   277   3      7.4138221044519979      16.047632177880288      5.2105499999999996
   278   2      7.4138221044519979      16.047632177880288      2.9496899999999999
   279   2      7.4138221044519979      16.047632177880288      7.0523499999999997
   280   2      7.4138221044519996      37.256792801990336                 5.06358
   281   2      7.5867002598765882      7.9780213267067976                12.30396
   282   3      7.5873869861105074      29.185810379790738                12.45093
   283   2      7.5873869861105074      29.185810379790738                10.19007
   284   2      7.5873869861105074      29.185810379790738      14.292730000000001
   285   2      7.6015137913910227      34.441417497904929                 5.06358
   286   1      7.6015137913910245      13.232256873794887      3.0874199999999998
   287   1      7.6015137913910245      13.232256873794887      7.1900700000000004
   288   2      7.7744869596233226      10.793390986466992                12.30396
   289   1      7.7751671008111636      32.001172513783985                 10.3278
   290   1      7.7751671008111636      32.001172513783985                14.43045
   291   3      7.7892054783300519      10.416881569709483      5.2105499999999996
   292   2      7.7892054783300519      10.416881569709483      2.9496899999999999
   293   2      7.7892054783300519      10.416881569709483      7.0523499999999997
   294   2      7.7892054783300528      31.626042193819526                 5.06358
   295   3      7.9615794073691868      34.817917507453757                12.45093
   296   2      7.9615794073691868      34.817917507453757                10.19007
   297   2      7.9615794073691868      34.817917507453757      14.292730000000001
   298   2      7.9622670743239761      13.608753120460237                12.30396
   299   2      7.9768971652690777      28.810666889734122                 5.06358
   300   1       7.976889639502132       7.601512850670157      3.0874199999999998
   301   1       7.976889639502132       7.601512850670157      7.1900700000000004
   302   1      8.1575814224595167      37.623693695798174                 10.3278
   303   1      8.1575814224595167      37.623693695798174                14.43045
   304   2      8.1582615636473559      16.414535893850733                12.30396
   305   3      8.1645813264411604      4.7861375465847535      5.2105499999999996
   306   2      8.1645813264411604      4.7861375465847535      2.9496899999999999
   307   2      8.1645813264411604      4.7861375465847535      7.0523499999999997
   308   2      8.1645888522081052      25.995291585648719                 5.06358
   309   3      8.3371462218165764      40.448649301207197                12.45093
   310   2      8.3371462218165764      40.448649301207197                10.19007
   311   2      8.3371462218165764      40.448649301207197      14.292730000000001
   312   2      8.3378263630044174      19.239491499259756                12.30396
   313   2      8.3522805391471326      23.179916281563315                 5.06358
   314   1      8.3522730133801861      1.9707622424993489      3.0874199999999998
   315   1      8.3522730133801861      1.9707622424993489      7.1900700000000004
   316   1      8.5249253957963642     0.84570429779338085                 10.3278
   317   1      8.5249253957963642     0.84570429779338085                14.43045
   318   2      8.5256130627511517       22.05486115901995                12.30396
   319   3      8.5399722260861566      41.573701601587956      5.2105499999999996
   320   2      8.5399722260861566      41.573701601587956      2.9496899999999999
   321   2      8.5399722260861566      41.573701601587956      7.0523499999999997
   322   2      8.5399722260861601      20.364540977477912                 5.06358
   323   3      8.7127120955430968      3.6610739575535742                12.45093
   324   2      8.7127120955430968      3.6610739575535742                10.19007
   325   2      8.7127120955430968      3.6610739575535742      14.292730000000001
   326   2      8.7133988217770177      24.868863010637515                12.30396
   327   2      8.7276639130251858      17.549165673392505                 5.06358
   328   1      8.7276639130251841      38.758326297502549      3.0874199999999998
   329   1      8.7276639130251841      38.758326297502549      7.1900700000000004
   330   1      8.9004987952898311      6.4764436173137678                 10.3278
   331   1      8.9004987952898311      6.4764436173137678                14.43045
   332   2      8.9011789364776703      27.684225144630762                12.30396
   333   3      8.9153555999642151      35.942950993417149      5.2105499999999996
   334   2      8.9153555999642151      35.942950993417149      2.9496899999999999
   335   2      8.9153555999642151      35.942950993417149      7.0523499999999997
   336   2      8.9153555999642133      14.733790369307101                 5.06358
   337   3       9.088271384223539      9.2918123363530931                12.45093
   338   2       9.088271384223539      9.2918123363530931                10.19007
   339   2       9.088271384223539      9.2918123363530931      14.292730000000001
   340   2      9.0889581104574582      30.499601389437036                12.30396
   341   2      9.1030472869032408      11.918415065221698                 5.06358
   342   1      9.1030472869032391      33.127575689331742      3.0874199999999998
   343   1      9.1030472869032391      33.127575689331742      7.1900700000000004
   344   2      9.2753779427824323      33.316339798060724                12.30396
   345   1      9.2760580839702733      12.107181996113288                 10.3278
   346   1      9.2760580839702733      12.107181996113288                14.43045
   347   3      9.2907389738422665      30.312200385246339      5.2105499999999996
   348   2      9.2907389738422665      30.312200385246339      2.9496899999999999
   349   2      9.2907389738422665      30.312200385246339      7.0523499999999997
   350   2        9.29073144807532      9.1030463461823725                 5.06358
   351   2      9.4631580574830831      36.131701932053971                12.30396
   352   3      9.4638447837170077      14.922551655873482                12.45093
   353   2      9.4638447837170077      14.922551655873482                10.19007
   354   2      9.4638447837170077      14.922551655873482      14.292730000000001
   355   2      9.4784231350143475      6.2876710420969681                 5.06358
   356   1       9.478430660781294      27.496825081160935      3.0874199999999998
   357   1       9.478430660781294      27.496825081160935      7.1900700000000004