(written by ASE)

742 atoms
3 atom types

0.0      29.050398312215759  xlo xhi
0.0      29.050398312215759  ylo yhi
0.0      61.480760591600003  zlo zhi

Masses

     1       137.3269999646734 # Ba
     2      15.998999995884349 # O
     3      47.866999987686484 # Ti

Atoms # atomic

     1   3     0.13325485669226214       11.37190389418447                12.45093
     2   2     0.13325485669226214       11.37190389418447                10.19007
     3   2     0.13325485669226214       11.37190389418447      14.292730000000001
     4   2     0.13346501835510322       25.89749919539096                12.30396
     5   1     0.13702677777829353      17.676891139993245      3.0874199999999998
     6   1     0.13702677777829353      17.676891139993245      7.1900700000000004
     7   2     0.13702677777829353      3.1516886899996481                 5.06358
     8   2     0.40721088624844626      19.593312761670006                12.30396
     9   1     0.40740593824925342       5.068519646156977                 10.3278
    10   1     0.40740593824925342       5.068519646156977                14.43045
    11   2     0.41108720136307841      9.4550784324497013                 5.06358
    12   3     0.41108720136307719      23.980280882443299      5.2105499999999996
    13   2     0.41108720136307719      23.980280882443299      2.9496899999999999
    14   2     0.41108720136307719      23.980280882443299      7.0523499999999997
    15   2     0.68135235256596116      13.289925766431235                12.30396
    16   3     0.68155839341188418       27.81593589654085                12.45093
    17   2     0.68155839341188418       27.81593589654085                10.19007
    18   2     0.68155839341188418       27.81593589654085      14.292730000000001
    19   1      0.6851476249478633       1.233265724906154      3.0874199999999998
    20   1      0.6851476249478633       1.233265724906154      7.1900700000000004
    21   2     0.68514762494786308      15.758468174899752                 5.06358
    22   2     0.95550206051731257      6.9869467320673886                12.30396
    23   1     0.95570123333503731      21.512944499726249                 10.3278
    24   1     0.95570123333503731      21.512944499726249                14.43045
    25   2     0.95920804853264718      22.061857917349805                 5.06358
    26   3     0.95920804853264841      7.5366554673562058      5.2105499999999996
    27   2     0.95920804853264841      7.5366554673562058      2.9496899999999999
    28   2     0.95920804853264841      7.5366554673562058      7.0523499999999997
    29   3      1.2294457276227402      15.208362467581123                12.45093
    30   2      1.2294457276227402      15.208362467581123                10.19007
    31   2      1.2294457276227402      15.208362467581123      14.292730000000001
    32   2      1.2296517684686641     0.68396769770354415                12.30396
    33   1      1.2332684721174325      13.840045209806258      3.0874199999999998
    34   1      1.2332684721174325      13.840045209806258      7.1900700000000004
    35   2      1.2332684721174327      28.365247659799856                 5.06358
    36   1      1.5035981827853715      8.9053738179778019                 10.3278
    37   1      1.5035981827853715      8.9053738179778019                14.43045
    38   2      1.5037946083918174      23.431381200876139                12.30396
    39   2      1.5073288957022182      5.6182325022627113                 5.06358
    40   3      1.5073288957022171       20.14343495225631      5.2105499999999996
    41   2      1.5073288957022171       20.14343495225631      2.9496899999999999
    42   2      1.5073288957022171       20.14343495225631      7.0523499999999997
    43   2      1.7775418498907996      17.126789553491538                12.30396
    44   3       1.777747890736723      2.6023947836139567                12.45093
    45   2       1.777747890736723      2.6023947836139567                10.19007
    46   2       1.777747890736723      2.6023947836139567      14.292730000000001
    47   1      1.7813893192870027      26.446824694706361      3.0874199999999998
    48   1      1.7813893192870027      26.446824694706361      7.1900700000000004
    49   2      1.7813893192870025      11.921622244712763                 5.06358
    50   2      2.0516915578421515       10.82381051912769                12.30396
    51   1      2.0518921042655158        25.3494030731229                 10.3278
    52   1      2.0518921042655158        25.3494030731229                14.43045
    53   2      2.0554497428717871      18.225011987162816                 5.06358
    54   3      2.0554497428717879      3.6998095371692181      5.2105499999999996
    55   2      2.0554497428717879      3.6998095371692181      2.9496899999999999
    56   2      2.0554497428717879      3.6998095371692181      7.0523499999999997
    57   3      2.3256379721588591      19.045216639401946                12.45093
    58   2      2.3256379721588591      19.045216639401946                10.19007
    59   2      2.3256379721588591      19.045216639401946      14.292730000000001
    60   2      2.3258330241596665      4.5204235238889181                12.30396
    61   1      2.3295101664565721       10.00319927961927      3.0874199999999998
    62   1      2.3295101664565721       10.00319927961927      7.1900700000000004
    63   2      2.3295101664565716       24.52840172961287                 5.06358
    64   1      2.5997890537158495      12.741832391374453                 10.3278
    65   1      2.5997890537158495      12.741832391374453                14.43045
    66   2       2.599985479322295       27.26783977427279                12.30396
    67   2      2.6035705900413575       1.781386572075724                 5.06358
    68   3      2.6035705900413566      16.306589022069321      5.2105499999999996
    69   2      2.6035705900413566      16.306589022069321      2.9496899999999999
    70   2      2.6035705900413566      16.306589022069321      7.0523499999999997
    71   3      2.8739291464277246      6.4388506097993305                12.45093
    72   2      2.8739291464277246      6.4388506097993305                10.19007
    73   2      2.8739291464277246      6.4388506097993305      14.292730000000001
    74   2      2.8741379344849269      20.964851124669469                12.30396
    75   1      2.8776310136261416      22.609978764519372      3.0874199999999998
    76   1      2.8776310136261416      22.609978764519372      7.1900700000000004
    77   2       2.877631013626142      8.0847763145257758                 5.06358
    78   2      3.1478824287726286      14.660269092524343                12.30396
    79   1      3.1480788543790768     0.13587157543548539                 10.3278
    80   1      3.1480788543790768     0.13587157543548539                14.43045
    81   2      3.1516914372109261      14.388166056975829                 5.06358
    82   3      3.1516914372109253      28.913368506969423      5.2105499999999996
    83   2      3.1516914372109253      28.913368506969423      2.9496899999999999
    84   2      3.1516914372109253      28.913368506969423      7.0523499999999997
    85   2      3.4220252686957839      8.3572776957097439                12.30396
    86   3      3.4222216943022303      22.883285078608079                12.45093
    87   2      3.4222216943022303      22.883285078608079                10.19007
    88   2      3.4222216943022303      22.883285078608079      14.292730000000001
    89   1       3.425751860795712      6.1663533494322813      3.0874199999999998
    90   1       3.425751860795712      6.1663533494322813      7.1900700000000004
    91   2      3.4257518607957116      20.691555799425878                 5.06358
    92   1      3.6959689358012122      16.578693431223478                 10.3278
    93   1      3.6959689358012122      16.578693431223478                14.43045
    94   2      3.6961749766471352      2.0542986613458978                12.30396
    95   2      3.6998122843804953      26.994945541875929                 5.06358
    96   3      3.6998122843804961      12.469743091882332      5.2105499999999996
    97   2      3.6998122843804961      12.469743091882332      2.9496899999999999
    98   2      3.6998122843804961      12.469743091882332      7.0523499999999997
    99   3      3.9701186437525644       10.27571439685963                12.45093
   100   2      3.9701186437525644       10.27571439685963                10.19007
   101   2      3.9701186437525644       10.27571439685963      14.292730000000001
   102   2      3.9703164429646498      24.801316566094318                12.30396
   103   1      3.9738727079652816      18.773132834332383      3.0874199999999998
   104   1      3.9738727079652816      18.773132834332383      7.1900700000000004
   105   2      3.9738727079652816      4.2479303843387877                 5.06358
   106   2      4.2440650580692711      18.497120517133887                12.30396
   107   1      4.2442697253095547      3.9723301488321381                 10.3278
   108   1      4.2442697253095547      3.9723301488321381                14.43045
   109   2      4.2479331315500657      10.551320126788839                 5.06358
   110   3      4.2479331315500648      25.076522576782438      5.2105499999999996
   111   2      4.2479331315500648      25.076522576782438      2.9496899999999999
   112   2      4.2479331315500648      25.076522576782438      7.0523499999999997
   113   2      4.5182133924149834      12.193745884345873                12.30396
   114   3      4.5184125652327101       26.71974365200473                12.45093
   115   2      4.5184125652327101       26.71974365200473                10.19007
   116   2      4.5184125652327101       26.71974365200473      14.292730000000001
   117   1      4.5219935551348511      2.3295074192452936      3.0874199999999998
   118   1      4.5219935551348511      2.3295074192452936      7.1900700000000004
   119   2      4.5219935551348511      16.854709869238892                 5.06358
   120   2      4.7923658475776127      5.8907572347425505                12.30396
   121   1      4.7925622731840587      20.416764617640887                 10.3278
   122   1      4.7925622731840587      20.416764617640887                14.43045
   123   2      4.7960539787196348      23.158099611688943                 5.06358
   124   3      4.7960539787196357      8.6328971616953449      5.2105499999999996
   125   2      4.7960539787196357      8.6328971616953449      2.9496899999999999
   126   2      4.7960539787196357      8.6328971616953449      7.0523499999999997
   127   3      5.0663095146830424      14.112172970256283                12.45093
   128   2      5.0663095146830424      14.112172970256283                10.19007
   129   2      5.0663095146830424      14.112172970256283      14.292730000000001
   130   2      5.0665086875007663      28.638170737915146                12.30396
   131   1      5.0701144023044211      14.936286904145398      3.0874199999999998
   132   1      5.0701144023044211      14.936286904145398      7.1900700000000004
   133   2      5.0701116550931422     0.41109406939127613                 5.06358
   134   1      5.3404592226343945      7.8091939358924396                 10.3278
   135   1      5.3404592226343945      7.8091939358924396                14.43045
   136   2      5.3406583954521185      22.335191703551299                12.30396
   137   2      5.3441748258892057      6.7144741966018513                 5.06358
   138   3      5.3441748258892048      21.239676646595449      5.2105499999999996
   139   2      5.3441748258892048      21.239676646595449      2.9496899999999999
   140   2      5.3441748258892048      21.239676646595449      7.0523499999999997
   141   2      5.6144056369511013      16.030600056166694                12.30396
   142   3      5.6146020625575481      1.5062025390778389                12.45093
   143   2      5.6146020625575481      1.5062025390778389                10.19007
   144   2      5.6146020625575481      1.5062025390778389      14.292730000000001
   145   1       5.618235249473992      27.543066389045499      3.0874199999999998
   146   1       5.618235249473992      27.543066389045499      7.1900700000000004
   147   2      5.6182352494739911      13.017863939051903                 5.06358
   148   2       5.888545729662976      9.7276182745915722                12.30396
   149   1      5.8887531441145375      24.253223191037542                 10.3278
   150   1      5.8887531441145375      24.253223191037542                14.43045
   151   2      5.8922956730587748      19.321253681501954                 5.06358
   152   3      5.8922956730587748      4.7960512315083577      5.2105499999999996
   153   2      5.8922956730587748      4.7960512315083577      2.9496899999999999
   154   2      5.8922956730587748      4.7960512315083577      7.0523499999999997
   155   3      6.1624990120078822      17.949036757316584                12.45093
   156   2      6.1624990120078822      17.949036757316584                10.19007
   157   2      6.1624990120078822      17.949036757316584      14.292730000000001
   158   2      6.1626968112199672      3.4242340265640792                12.30396
   159   1      6.1663560966435602       11.09944097395841      3.0874199999999998
   160   1      6.1663560966435602       11.09944097395841      7.1900700000000004
   161   2      6.1663560966435611      25.624643423952008                 5.06358
   162   1       6.436640478325395      11.645649762077813                 10.3278
   163   1       6.436640478325395      11.645649762077813                14.43045
   164   2      6.4368492663825965       26.17165027694795                12.30396
   165   2      6.4404165202283448      2.8776282664148636                 5.06358
   166   3      6.4404165202283439      17.402830716408459      5.2105499999999996
   167   2      6.4404165202283439      17.402830716408459      2.9496899999999999
   168   2      6.4404165202283439      17.402830716408459      7.0523499999999997
   169   3      6.7107929334880261      5.3426611124744916                12.45093
   170   2      6.7107929334880261      5.3426611124744916                10.19007
   171   2      6.7107929334880261      5.3426611124744916      14.292730000000001
   172   2      6.7109893590944738      19.868668495372827                12.30396
   173   1      6.7144769438131311      23.706220458858514      3.0874199999999998
   174   1      6.7144769438131311      23.706220458858514      7.1900700000000004
   175   2      6.7144769438131302      9.1810180088649158                 5.06358
   176   2      6.9847366005934557      13.564076847988225                12.30396
   177   1      6.9849357734111805      28.090074615647087                 10.3278
   178   1      6.9849357734111805      28.090074615647087                14.43045
   179   2      6.9885373673979139      15.484407751314967                 5.06358
   180   3      6.9885346201866358      0.9592149165608459      5.2105499999999996
   181   2      6.9885346201866358      0.9592149165608459      2.9496899999999999
   182   2      6.9885346201866358      0.9592149165608459      7.0523499999999997
   183   2      7.2588863085448061      7.2610978136243798                12.30396
   184   3      7.2590854813625318      21.787095581283239                12.45093
   185   2      7.2590854813625318      21.787095581283239                10.19007
   186   2      7.2590854813625318      21.787095581283239      14.292730000000001
   187   1      7.2625977909827002      7.2625950437714213      3.0874199999999998
   188   1      7.2625977909827002      7.2625950437714213      7.1900700000000004
   189   2      7.2625977909827011      21.787797493765019                 5.06358
   190   1      7.5328327228615128      15.482503933898638                 10.3278
   191   1      7.5328327228615128      15.482503933898638                14.43045
   192   2      7.5330387637074363     0.95810916402105906                12.30396
   193   2      7.5366582145674847       28.09118723621507                 5.06358
   194   3      7.5366582145674839      13.565984786221472      5.2105499999999996
   195   2      7.5366582145674839      13.565984786221472      2.9496899999999999
   196   2      7.5366582145674839      13.565984786221472      7.0523499999999997
   197   3      7.8069824308128641      9.1795248995347922                12.45093
   198   2      7.8069824308128641      9.1795248995347922                10.19007
   199   2      7.8069824308128641      9.1795248995347922      14.292730000000001
   200   2        7.80718023002495      23.705127068769482                12.30396
   201   1      7.8107186381522711      19.869374528671525      3.0874199999999998
   202   1      7.8107186381522711      19.869374528671525      7.1900700000000004
   203   2      7.8107186381522693      5.3441720786779277                 5.06358
   204   2      8.0809260979182937      17.400940635048528                12.30396
   205   1      8.0811238971303805      2.8761379042960202                 10.3278
   206   1      8.0811238971303805      2.8761379042960202                14.43045
   207   2      8.0847790617370539      11.647561821127979                 5.06358
   208   3      8.0847790617370539      26.172764271121579      5.2105499999999996
   209   2      8.0847790617370539      26.172764271121579      2.9496899999999999
   210   2      8.0847790617370539      26.172764271121579      7.0523499999999997
   211   2      8.3550771794752858      11.097556387021033                12.30396
   212   3      8.3552763522930107      25.623554154679891                12.45093
   213   2      8.3552763522930107      25.623554154679891                10.19007
   214   2      8.3552763522930107      25.623554154679891      14.292730000000001
   215   1      8.3588394853218393      3.4257491135844336      3.0874199999999998
   216   1      8.3588394853218393      3.4257491135844336      7.1900700000000004
   217   2      8.3588394853218411       17.95095156357803                 5.06358
   218   2      8.6292200193984367      4.7945649902064318                12.30396
   219   1      8.6294260602443611       19.32057512031605                 10.3278
   220   1      8.6294260602443611       19.32057512031605                14.43045
   221   2       8.632899908906623      24.254341306028081                 5.06358
   222   3       8.632899908906623      9.7291388560344849      5.2105499999999996
   223   2       8.632899908906623      9.7291388560344849      2.9496899999999999
   224   2       8.632899908906623      9.7291388560344849      7.0523499999999997
   225   3      8.9031733017433439      13.015983472931445                12.45093
   226   2      8.9031733017433439      13.015983472931445                10.19007
   227   2      8.9031733017433439      13.015983472931445      14.292730000000001
   228   2      8.9033724745610687      27.541981240590307                12.30396
   229   1      8.9069603324914102      16.032528598484536      3.0874199999999998
   230   1      8.9069603324914102      16.032528598484536      7.1900700000000004
   231   2      8.9069575852801304      1.5073357637304159                 5.06358
   232   1      9.1773133944552185      6.7130016913563217                 10.3278
   233   1      9.1773133944552185      6.7130016913563217                14.43045
   234   2      9.1775125672729434      21.238999459015179                12.30396
   235   2      9.1810207560761921      7.8107158909409904                 5.06358
   236   3      9.1810207560761938      22.335918340934587      5.2105499999999996
   237   2      9.1810207560761938      22.335918340934587      2.9496899999999999
   238   2      9.1810207560761938      22.335918340934587      7.0523499999999997
   239   2      9.4512598087719262      14.934407811630578                12.30396
   240   3      9.4514658496178487     0.41001304175299996                12.45093
   241   2      9.4514658496178487     0.41001304175299996                10.19007
   242   2      9.4514658496178487     0.41001304175299996      14.292730000000001
   243   1      9.4550811796609775      28.639308083384638      3.0874199999999998
   244   1      9.4550811796609775      28.639308083384638      7.1900700000000004
   245   2      9.4550811796609793      14.114105633391043                 5.06358
   246   2      9.7254095167232784      8.6314287772667342                12.30396
   247   1      9.7256073159353633      23.157030946501422                 10.3278
   248   1      9.7256073159353633      23.157030946501422                14.43045
   249   2      9.7291416032457629      20.417495375841092                 5.06358
   250   3      9.7291416032457629      5.8922929258474968      5.2105499999999996
   251   2      9.7291416032457629      5.8922929258474968      2.9496899999999999
   252   2      9.7291416032457629      5.8922929258474968      7.0523499999999997
   253   3      9.9993531838287062      16.852844512780468                12.45093
   254   2      9.9993531838287062      16.852844512780468                10.19007
   255   2      9.9993531838287062      16.852844512780468      14.292730000000001
   256   2      9.9995605982802669      2.3280445292392402                12.30396
   257   1       10.00320202683055       12.19568266829755      3.0874199999999998
   258   1       10.00320202683055       12.19568266829755      7.1900700000000004
   259   2      10.003202026830547      26.720885118291147                 5.06358
   260   1      10.273504265385696      10.549460264752973                 10.3278
   261   1      10.273504265385696      10.549460264752973                14.43045
   262   2      10.273703438203421      25.075458032411834                12.30396
   263   2      10.277262450415332      3.9738699607540031                 5.06358
   264   3      10.277262450415334      18.499072410747601      5.2105499999999996
   265   2      10.277262450415334      18.499072410747601      2.9496899999999999
   266   2      10.277262450415334      18.499072410747601      7.0523499999999997
   267   3      10.547653973337049      4.2464812303891293                12.45093
   268   2      10.547653973337049      4.2464812303891293                10.19007
   269   2      10.547653973337049      4.2464812303891293      14.292730000000001
   270   2      10.547853146154774      18.772478998047987                12.30396
   271   1      10.551322874000116      24.802462153197652      3.0874199999999998
   272   1      10.551322874000116      24.802462153197652      7.1900700000000004
   273   2      10.551322874000119      10.277259703204054                 5.06358
   274   2      10.821600387653756      12.467887350663387                12.30396
   275   1      10.821796813260205      26.993894733561721                 10.3278
   276   1      10.821796813260205      26.993894733561721                14.43045
   277   2      10.825383297584903      16.580649445654107                 5.06358
   278   3      10.825380550373623      2.0554566108999852      5.2105499999999996
   279   2      10.825380550373623      2.0554566108999852      2.9496899999999999
   280   2      10.825380550373623      2.0554566108999852      7.0523499999999997
   281   2      11.095750095605108      6.1649083162995417                12.30396
   282   3      11.095949268422833      20.690906083958399                12.45093
   283   2      11.095949268422833      20.690906083958399                10.19007
   284   2      11.095949268422833      20.690906083958399      14.292730000000001
   285   1      11.099443721169688      8.3588367381105613      3.0874199999999998
   286   1      11.099443721169688      8.3588367381105613      7.1900700000000004
   287   2      11.099443721169687      22.884039188104158                 5.06358
   288   1      11.369693762710536      14.386324051813276                 10.3278
   289   1      11.369693762710536      14.386324051813276                14.43045
   290   2      11.369892935528263      28.912321819472137                12.30396
   291   2      11.373501397543192     0.13703364580649122                 5.06358
   292   3      11.373504144754472      14.662226480560612      5.2105499999999996
   293   2      11.373504144754472      14.662226480560612      2.9496899999999999
   294   2      11.373504144754472      14.662226480560612      7.0523499999999997
   295   3      11.643836602633689      8.0833326549986744                12.45093
   296   2      11.643836602633689      8.0833326549986744                10.19007
   297   2      11.643836602633689      8.0833326549986744      14.292730000000001
   298   2      11.644044017085253      22.608937571444642                12.30396
   299   1      11.647564568339256      20.965616223010663      3.0874199999999998
   300   1      11.647564568339256      20.965616223010663      7.1900700000000004
   301   2      11.647564568339259      6.4404137730170667                 5.06358
   302   2      11.917789884978594      16.304751137723688                12.30396
   303   1      11.917987684190681      1.7799484069711817                 10.3278
   304   1      11.917987684190681      1.7799484069711817                14.43045
   305   2      11.921624991924043      12.743803515467119                 5.06358
   306   3      11.921624991924041      27.269005965460718      5.2105499999999996
   307   2      11.921624991924041      27.269005965460718      2.9496899999999999
   308   2      11.921624991924041      27.269005965460718      7.0523499999999997
   309   2      12.191931351296111      10.001364142484915                12.30396
   310   3      12.192140139353311      24.527364657355054                12.45093
   311   2      12.192140139353311      24.527364657355054                10.19007
   312   2      12.192140139353311      24.527364657355054      14.292730000000001
   313   1      12.195685415508828      4.5219908079235731      3.0874199999999998
   314   1      12.195685415508828      4.5219908079235731      7.1900700000000004
   315   2      12.195685415508827      19.047193257917169                 5.06358
   316   2      12.466081059247459      3.6983851081210699                12.30396
   317   1      12.466280232065186      18.224382875779931                 10.3278
   318   1      12.466280232065186      18.224382875779931                14.43045
   319   2       12.46974583909361      25.350583000367223                 5.06358
   320   3      12.469745839093612      10.825380550373625      5.2105499999999996
   321   2      12.469745839093612      10.825380550373625      2.9496899999999999
   322   2      12.469745839093612      10.825380550373625      7.0523499999999997
   323   3      12.740027473564167      11.919791228395328                12.45093
   324   2      12.740027473564167      11.919791228395328                10.19007
   325   2      12.740027473564167      11.919791228395328      14.292730000000001
   326   2      12.740223899170617      26.445798611293668                12.30396
   327   1      12.743806262678396      17.128770292823678      3.0874199999999998
   328   1      12.743806262678396      17.128770292823678      7.1900700000000004
   329   2      12.743803515467119      2.6035774580695552                 5.06358
   330   1      13.014177181515519      5.6168121940314828                 10.3278
   331   1      13.014177181515519      5.6168121940314828                14.43045
   332   2      13.014376354333246      20.142809961690343                12.30396
   333   2      13.017866686263181      8.9069575852801304                 5.06358
   334   3      13.017866686263181      23.432160035273728      5.2105499999999996
   335   2      13.017866686263181      23.432160035273728      2.9496899999999999
   336   2      13.017866686263181      23.432160035273728      7.0523499999999997
   337   2      13.288120848620947      13.838227929545216                12.30396
   338   3      13.288320021438672      28.364225697204077                12.45093
   339   2      13.288320021438672      28.364225697204077                10.19007
   340   2      13.288320021438672      28.364225697204077      14.292730000000001
   341   1      13.291924362636689     0.68515449297606124      3.0874199999999998
   342   1      13.291924362636689     0.68515449297606124      7.1900700000000004
   343   2      13.291927109847965      15.210347327730181                 5.06358
   344   2      13.562273303783579      7.5352392799418952                12.30396
   345   1      13.562471102995666      22.060841449176582                 10.3278
   346   1      13.562471102995666      22.060841449176582                14.43045
   347   2       13.56598753343275      21.513737070180234                 5.06358
   348   3      13.565987533432752      6.9885346201866367      5.2105499999999996
   349   2      13.565987533432752      6.9885346201866367      2.9496899999999999
   350   2      13.565987533432752      6.9885346201866367      7.0523499999999997
   351   3      13.836216970889005      15.756655015455628                12.45093
   352   2      13.836216970889005      15.756655015455628                10.19007
   353   2      13.836216970889005      15.756655015455628      14.292730000000001
   354   2      13.836414770101094      1.2318522847031228                12.30396
   355   1      13.840047957017536      13.291924362636689      3.0874199999999998
   356   1      13.840047957017536      13.291924362636689      7.1900700000000004
   357   2      13.840047957017536      27.817126812630288                 5.06358
   358   1      14.110368052445999      9.4532707674281351                 10.3278