(written by ASE)

518 atoms
3 atom types

0.0      24.272528441359597  xlo xhi
0.0      24.272528441359597  ylo yhi
0.0      61.480760591600003  zlo zhi

Masses

     1       137.3269999646734 # Ba
     2      15.998999995884349 # O
     3      47.866999987686484 # Ti

Atoms # atomic

     1   1     0.14670472430168208      19.178593512227831                 10.3278
     2   1     0.14670472430168208      19.178593512227831                14.43045
     3   2     0.14768783024576765      7.0482284630463914                12.30396
     4   3      0.1639994977662057      17.220373058828674      5.2105499999999996
     5   2      0.1639994977662057      17.220373058828674      2.9496899999999999
     6   2      0.1639994977662057      17.220373058828674      7.0523499999999997
     7   2     0.16399949776620529      5.0841060860029694                 5.06358
     8   2     0.47456069271513623      21.144693609088542                12.30396
     9   3      0.4755421546693494      9.0143384238463362                12.45093
    10   2      0.4755421546693494      9.0143384238463362                10.19007
    11   2      0.4755421546693494      9.0143384238463362      14.292730000000001
    12   2     0.49200671324798134       15.25232976593802                 5.06358
    13   1     0.49200671324798101      3.1160627931123148      3.0874199999999998
    14   1     0.49200671324798101      3.1160627931123148      7.1900700000000004
    15   1     0.80240186521973356      23.112768137786784                 10.3278
    16   1     0.80240186521973356      23.112768137786784                14.43045
    17   2     0.80338497116381991      10.982403088605341                12.30396
    18   3     0.82001392872975698      13.284286473047366      5.2105499999999996
    19   2     0.82001392872975698      13.284286473047366      2.9496899999999999
    20   2     0.82001392872975698      13.284286473047366      7.0523499999999997
    21   2     0.82001392872975687      1.1480195002216596                 5.06358
    22   3      1.1312310756380364      12.948501541476173                12.45093
    23   2      1.1312310756380364      12.948501541476173                10.19007
    24   2      1.1312310756380364      12.948501541476173      14.292730000000001
    25   2      1.1322224015314877     0.81814800022384104                12.30396
    26   2      1.1480211442115329      11.316243180156709                 5.06358
    27   1       1.148021144211532      23.452510152982416      3.0874199999999998
    28   1       1.148021144211532      23.452510152982416      7.1900700000000004
    29   2      1.4590821120818724      14.916577714164289                12.30396
    30   1      1.4600652180259583      2.7862126649828456                 10.3278
    31   1      1.4600652180259583      2.7862126649828456                14.43045
    32   3      1.4760283596933086      9.3481998872660554      5.2105499999999996
    33   2      1.4760283596933086      9.3481998872660554      2.9496899999999999
    34   2      1.4760283596933086      9.3481998872660554      7.0523499999999997
    35   2      1.4760283596933079      21.484466860091761                 5.06358
    36   3      1.7869282165560882      16.882676167035122                12.45093
    37   2      1.7869282165560882      16.882676167035122                10.19007
    38   2      1.7869282165560882      16.882676167035122      14.292730000000001
    39   2      1.7879113225001748      4.7523111178536785                12.30396
    40   2      1.8040355751750847      7.3801565943753999                 5.06358
    41   1      1.8040355751750838      19.516423567201105      3.0874199999999998
    42   1      1.8040355751750838      19.516423567201105      7.1900700000000004
    43   2      2.1147808969897977      18.850742475783999                12.30396
    44   1      2.1157623589440111      6.7203872905417938                 10.3278
    45   1      2.1157623589440111      6.7203872905417938                14.43045
    46   3      2.1320427906568606      5.4121133014847453      5.2105499999999996
    47   2      2.1320427906568606      5.4121133014847453      2.9496899999999999
    48   2      2.1320427906568606      5.4121133014847453      7.0523499999999997
    49   2      2.1320427906568598       17.54838027431045                 5.06358
    50   3      2.4426253574741414      20.816850792594067                12.45093
    51   2      2.4426253574741414      20.816850792594067                10.19007
    52   2      2.4426253574741414      20.816850792594067      14.292730000000001
    53   2      2.4436084634182271      8.6864857434126268                12.30396
    54   2      2.4600500061386361      3.4440700085940907                 5.06358
    55   1      2.4600500061386357      15.580336981419796      3.0874199999999998
    56   1      2.4600500061386357      15.580336981419796      7.1900700000000004
    57   2      2.7704681739686112      22.784915457353073                12.30396
    58   1      2.7714611438519361      10.654552052161504                 10.3278
    59   1      2.7714611438519361      10.654552052161504                14.43045
    60   3       2.788057221620412      1.4760267157034355      5.2105499999999996
    61   2       2.788057221620412      1.4760267157034355      2.9496899999999999
    62   2       2.788057221620412      1.4760267157034355      7.0523499999999997
    63   2      2.7880572216204111      13.612293688529141                 5.06358
    64   2      3.0993056043362799      12.620660368971576                12.30396
    65   3      3.1002887102803656     0.49029531979013236                12.45093
    66   2      3.1002887102803656     0.49029531979013236                10.19007
    67   2      3.1002887102803656     0.49029531979013236      14.292730000000001
    68   2      3.1160644371021875      23.780517368464192                 5.06358
    69   1      3.1160644371021871      11.644250395638485      3.0874199999999998
    70   1      3.1160644371021871      11.644250395638485      7.1900700000000004
    71   1      3.4271484208307497      14.588725033730579                 10.3278
    72   1      3.4271484208307497      14.588725033730579                14.43045
    73   2      3.4281315267748362      2.4583599845491366                12.30396
    74   3      3.4440716525839634      21.812474075573537      5.2105499999999996
    75   2      3.4440716525839634      21.812474075573537      2.9496899999999999
    76   2      3.4440716525839634      21.812474075573537      7.0523499999999997
    77   2       3.444071652583963      9.6762071027478314                 5.06358
    78   2      3.7550043892442049      16.554825130591286                12.30396
    79   3      3.7559858511984179       4.424469945349081                12.45093
    80   2      3.7559858511984179       4.424469945349081                10.19007
    81   2      3.7559858511984179       4.424469945349081      14.292730000000001
    82   2      3.7720788680657393      19.844430782682881                 5.06358
    83   1      3.7720788680657389      7.7081638098571759      3.0874199999999998
    84   1      3.7720788680657389      7.7081638098571759      7.1900700000000004
    85   1      4.0828455617488029      18.522899659289529                 10.3278
    86   1      4.0828455617488029      18.522899659289529                14.43045
    87   2      4.0838286676928881      6.3925346101080853                12.30396
    88   3      4.1000860835475157      17.876387489792226      5.2105499999999996
    89   2      4.1000860835475157      17.876387489792226      2.9496899999999999
    90   2      4.1000860835475157      17.876387489792226      7.0523499999999997
    91   2      4.1000860835475148      5.7401205169665213                 5.06358
    92   2      4.4106916662230198       20.48899811216036                12.30396
    93   3      4.4116747721671041      8.3586330629789174                12.45093
    94   2      4.4116747721671041      8.3586330629789174                10.19007
    95   2      4.4116747721671041      8.3586330629789174      14.292730000000001
    96   2      4.4280932990292907       15.90834419690157                 5.06358
    97   1      4.4280932990292907      3.7720772240758662      3.0874199999999998
    98   1      4.4280932990292907      3.7720772240758662      7.1900700000000004
    99   1      4.7385443466567283      22.457064420909237                 10.3278
   100   1      4.7385443466567283      22.457064420909237                14.43045
   101   2      4.7395258086109404      10.326709235667035                12.30396
   102   3      4.7561005145110666      13.940300904010916      5.2105499999999996
   103   2      4.7561005145110666      13.940300904010916      2.9496899999999999
   104   2      4.7561005145110666      13.940300904010916      7.0523499999999997
   105   2      4.7561005145110666      1.8040339311852112                 5.06358
   106   3      5.0673719130851573      12.292807688537867                12.45093
   107   2      5.0673719130851573      12.292807688537867                10.19007
   108   2      5.0673719130851573      12.292807688537867      14.292730000000001
   109   2      5.0683550190292426     0.16244263935642345                12.30396
   110   2      5.0841077299928426      11.972257611120261                 5.06358
   111   1      5.0841077299928417      24.108524583945968      3.0874199999999998
   112   1      5.0841077299928417      24.108524583945968      7.1900700000000004
   113   2      5.3952245935188659      14.260873997286744                12.30396
   114   1      5.3962060554730789      2.1305188120445395                 10.3278
   115   1      5.3962060554730789      2.1305188120445395                14.43045
   116   3      5.4121149454746185      10.004214318229607      5.2105499999999996
   117   2      5.4121149454746185      10.004214318229607      2.9496899999999999
   118   2      5.4121149454746185      10.004214318229607      7.0523499999999997
   119   2      5.4121149454746185      22.140481291055313                 5.06358
   120   3      5.7230690540032105      16.226982314096816                12.45093
   121   2      5.7230690540032105      16.226982314096816                10.19007
   122   2      5.7230690540032105      16.226982314096816      14.292730000000001
   123   2      5.7240521599472958      4.0966172649153716                12.30396
   124   2      5.7401221609563944      8.0361710253389518                 5.06358
   125   1      5.7401221609563944      20.172437998164657      3.0874199999999998
   126   1      5.7401221609563944      20.172437998164657      7.1900700000000004
   127   2      6.0509217344369173      18.195048622845693                12.30396
   128   1      6.0519031963911312      6.0646934376034887                 10.3278
   129   1      6.0519031963911312      6.0646934376034887                14.43045
   130   3      6.0681293764381703      6.0681277324482963      5.2105499999999996
   131   2      6.0681293764381703      6.0681277324482963      2.9496899999999999
   132   2      6.0681293764381703      6.0681277324482963      7.0523499999999997
   133   2      6.0681293764381703      18.204394705274002                 5.06358
   134   3      6.3787661949212628      20.161156939655765                12.45093
   135   2      6.3787661949212628      20.161156939655765                10.19007
   136   2      6.3787661949212628      20.161156939655765      14.292730000000001
   137   2      6.3797493008653481      8.0307918904743207                12.30396
   138   2      6.3961365919199462      4.1000844395576417                 5.06358
   139   1      6.3961365919199453      16.236351412383346      3.0874199999999998
   140   1      6.3961365919199453      16.236351412383346      7.1900700000000004
   141   2      6.7066090114157326       22.12922160441477                12.30396
   142   1      6.7075921173598179      9.9929562755789352                 10.3278
   143   1      6.7075921173598179      9.9929562755789352                14.43045
   144   3      6.7241438074017221      2.1320411466669871      5.2105499999999996
   145   2      6.7241438074017221      2.1320411466669871      2.9496899999999999
   146   2      6.7241438074017221      2.1320411466669871      7.0523499999999997
   147   2      6.7241438074017212      14.268308119492692                 5.06358
   148   2      7.0354464417834004       11.96496651603327                12.30396
   149   3      7.0364311917173579      24.107125548563999                12.45093
   150   2      7.0364311917173579      24.107125548563999                10.19007
   151   2      7.0364311917173579      24.107125548563999      14.292730000000001
   152   2       7.052149378893624     0.16400771771557043                 5.06358
   153   1      7.0521510228834972      12.300264826602037      3.0874199999999998
   154   1      7.0521510228834972      12.300264826602037      7.1900700000000004
   155   1      7.3632892582778702      13.933031180792273                 10.3278
   156   1      7.3632892582778702      13.933031180792273                14.43045
   157   2      7.3642723642219572      1.8026661316108306                12.30396
   158   3       7.380158238365274      22.468488506537089      5.2105499999999996
   159   2       7.380158238365274      22.468488506537089      2.9496899999999999
   160   2       7.380158238365274      22.468488506537089      7.0523499999999997
   161   2      7.3801582383652731      10.332221533711383                 5.06358
   162   2       7.691135362752088      15.899129633663106                12.30396
   163   3      7.6921168247062983      3.7687744484209014                12.45093
   164   2      7.6921168247062983      3.7687744484209014                10.19007
   165   2      7.6921168247062983      3.7687744484209014      14.292730000000001
   166   2      7.7081654538470499      20.500445213646433                 5.06358
   167   1       7.708165453847049      8.3641782408207277      3.0874199999999998
   168   1       7.708165453847049      8.3641782408207277      7.1900700000000004
   169   1      8.0189863991959225      17.867205806351219                 10.3278
   170   1      8.0189863991959225      17.867205806351219                14.43045
   171   2      8.0199695051400095      5.7368407571697784                12.30396
   172   3      8.0361726693288258      18.532401920755778      5.2105499999999996
   173   2      8.0361726693288258      18.532401920755778      2.9496899999999999
   174   2      8.0361726693288258      18.532401920755778      7.0523499999999997
   175   2       8.036172669328824      6.3961349479300731                 5.06358
   176   2      8.3468325036701412      19.833304259222054                12.30396
   177   3      8.3478156096142264      7.7029392100406122                12.45093
   178   2      8.3478156096142264      7.7029392100406122                10.19007
   179   2      8.3478156096142264      7.7029392100406122      14.292730000000001
   180   2      8.3641798848106017      16.564358627865122                 5.06358
   181   1      8.3641798848105999      4.4280916550394185      3.0874199999999998
   182   1      8.3641798848105999      4.4280916550394185      7.1900700000000004
   183   1       8.674685184103847      21.801370567970931                 10.3278
   184   1       8.674685184103847      21.801370567970931                14.43045
   185   2      8.6756666460580618      9.6710153827287275                12.30396
   186   3      8.6921871002923776      14.596315334974468      5.2105499999999996
   187   2      8.6921871002923776      14.596315334974468      2.9496899999999999
   188   2      8.6921871002923776      14.596315334974468      7.0523499999999997
   189   2      8.6921871002923758       2.460048362148763                 5.06358
   190   3      9.0035127505322787      11.637113835599559                12.45093
   191   2      9.0035127505322787      11.637113835599559                10.19007
   192   2      9.0035127505322787      11.637113835599559      14.292730000000001
   193   2       9.004495856476364      23.779282732069529                12.30396
   194   2      9.0201943157741535      12.628272042083813                 5.06358
   195   1      9.0201926717842795     0.49201493319734657      3.0874199999999998
   196   1      9.0201926717842795     0.49201493319734657      7.1900700000000004
   197   2      9.3313654309659864      13.605180144348436                12.30396
   198   1      9.3323468929201994      1.4748249591062332                 10.3278
   199   1      9.3323468929201994      1.4748249591062332                14.43045
   200   3      9.3482015312559277      10.660228749193159      5.2105499999999996
   201   2      9.3482015312559277      10.660228749193159      2.9496899999999999
   202   2      9.3482015312559277      10.660228749193159      7.0523499999999997
   203   2      9.3482015312559295      22.796495722018864                 5.06358
   204   3       9.659209891450331      15.571288461158508                12.45093
   205   2       9.659209891450331      15.571288461158508                10.19007
   206   2       9.659209891450331      15.571288461158508      14.292730000000001
   207   2      9.6601929973944163       3.440923411977066                12.30396
   208   2      9.6762087467377036      8.6921854563025036                 5.06358
   209   1      9.6762087467377054      20.828452429128209      3.0874199999999998
   210   1      9.6762087467377054      20.828452429128209      7.1900700000000004
   211   2      9.9870527079447999      17.539353125917511                12.30396
   212   1      9.9880358138888869      5.4089880767360698                 10.3278
   213   1      9.9880358138888869      5.4089880767360698                14.43045
   214   3       10.00421596221948      6.7241421634118481      5.2105499999999996
   215   2       10.00421596221948      6.7241421634118481      2.9496899999999999
   216   2       10.00421596221948      6.7241421634118481      7.0523499999999997
   217   2      10.004215962219481      18.860409136237553                 5.06358
   218   3      10.314908676358256      19.505453222778218                12.45093
   219   2      10.314908676358256      19.505453222778218                10.19007
   220   2      10.314908676358256      19.505453222778218      14.292730000000001
   221   2      10.315890138312469      7.3750980375360147                12.30396
   222   2      10.332223177701255      4.7560988705211935                 5.06358
   223   1      10.332223177701257      16.892365843346898      3.0874199999999998
   224   1      10.332223177701257      16.892365843346898      7.1900700000000004
   225   2      10.642749848862852       21.47352775147646                12.30396
   226   1      10.643732954806939      9.3431627022950181                 10.3278
   227   1      10.643732954806939      9.3431627022950181                14.43045
   228   3      10.660230393183031      2.7880555776305389      5.2105499999999996
   229   2      10.660230393183031      2.7880555776305389      2.9496899999999999
   230   2      10.660230393183031      2.7880555776305389      7.0523499999999997
   231   2      10.660230393183033      14.924322550456244                 5.06358
   232   2      10.971579059281156      11.309261155165851                12.30396
   233   3      10.972562165225241      23.451430051635818                12.45093
   234   2      10.972562165225241      23.451430051635818                10.19007
   235   2      10.972562165225241      23.451430051635818      14.292730000000001
   236   2      10.988235964674935     0.82002214867912226                 5.06358
   237   1      10.988237608664809      12.956279257565589      3.0874199999999998
   238   1      10.988237608664809      12.956279257565589      7.1900700000000004
   239   1      11.299430095724992      13.277337327853967                 10.3278
   240   1      11.299430095724992      13.277337327853967                14.43045
   241   2      11.300413201669077      1.1469722786725245                12.30396
   242   3      11.316244824146583       23.12450293750064      5.2105499999999996
   243   2      11.316244824146583       23.12450293750064      2.9496899999999999
   244   2      11.316244824146583       23.12450293750064      7.0523499999999997
   245   2      11.316244824146583      10.988235964674935                 5.06358
   246   2      11.627276200199208        15.2434357807248                12.30396
   247   3      11.628259306143296      3.1130707315433575                12.45093
   248   2      11.628259306143296      3.1130707315433575                10.19007
   249   2      11.628259306143296      3.1130707315433575      14.292730000000001
   250   2      11.644252039628359      21.156459644609985                 5.06358
   251   1      11.644252039628359      9.0201926717842795      3.0874199999999998
   252   1      11.644252039628359      9.0201926717842795      7.1900700000000004
   253   1      11.955127236643042      17.211511953412916                 10.3278
   254   1      11.955127236643042      17.211511953412916                14.43045
   255   2      11.956110342587129      5.0811469042314732                12.30396
   256   3      11.972259255110135      19.188416351719329      5.2105499999999996
   257   2      11.972259255110135      19.188416351719329      2.9496899999999999
   258   2      11.972259255110135      19.188416351719329      7.0523499999999997
   259   2      11.972259255110135       7.052149378893624                 5.06358
   260   2      12.282973341117261      19.177610406283748                12.30396
   261   3      12.283956447061348      7.0472453571023053                12.45093
   262   2      12.283956447061348      7.0472453571023053                10.19007
   263   2      12.283956447061348      7.0472453571023053      14.292730000000001
   264   2      12.300266470591911      17.220373058828674                 5.06358
   265   1      12.300266470591911      5.0841060860029694      3.0874199999999998
   266   1      12.300266470591911      5.0841060860029694      7.1900700000000004
   267   1       12.61081615761173      21.145675071042753                 10.3278
   268   1       12.61081615761173      21.145675071042753                14.43045
   269   2      12.611807483505181      9.0153215297904215                12.30396
   270   3      12.628273686073687       15.25232976593802      5.2105499999999996
   271   2      12.628273686073687       15.25232976593802      2.9496899999999999
   272   2      12.628273686073687       15.25232976593802      7.0523499999999997
   273   2      12.628273686073687      3.1160627931123148                 5.06358
   274   2      12.938670482035311      23.111785031842697                12.30396
   275   3      12.939653587979398      10.981419982661253                12.45093
   276   2      12.939653587979398      10.981419982661253                10.19007
   277   2      12.939653587979398      10.981419982661253      14.292730000000001
   278   2      12.956280901555463      13.284286473047365                 5.06358
   279   1      12.956279257565591      1.1480293641608983      3.0874199999999998
   280   1      12.956279257565591      1.1480293641608983      7.1900700000000004
   281   1       13.26651165453991      0.8073256148895297                 10.3278
   282   1       13.26651165453991      0.8073256148895297                14.43045
   283   2      13.267496404473867      12.949484647420258                12.30396
   284   3      13.284288117037237      11.316243180156711      5.2105499999999996
   285   2      13.284288117037237      11.316243180156711      2.9496899999999999
   286   2      13.284288117037237      11.316243180156711      7.0523499999999997
   287   2      13.284288117037239      23.452510152982416                 5.06358
   288   3      13.595350728897449      14.915594608220202                12.45093
   289   2      13.595350728897449      14.915594608220202                10.19007
   290   2      13.595350728897449      14.915594608220202      14.292730000000001
   291   2      13.596333834841536      2.7852295590387595                12.30396
   292   2      13.612295332519013      9.3481998872660554                 5.06358
   293   1      13.612295332519015      21.484466860091761      3.0874199999999998
   294   1      13.612295332519015      21.484466860091761      7.1900700000000004
   295   2      13.923193545391921      16.883659272979205                12.30396
   296   1      13.924176651336007      4.7532942237977647                 10.3278
   297   1      13.924176651336007      4.7532942237977647                14.43045
   298   3      13.940302548000789      7.3801565943753999      5.2105499999999996
   299   2      13.940302548000789      7.3801565943753999      2.9496899999999999
   300   2      13.940302548000789      7.3801565943753999      7.0523499999999997
   301   2       13.94030254800079      19.516423567201105                 5.06358
   302   3      14.251039649866138       18.84975772585004                12.45093
   303   2      14.251039649866138       18.84975772585004                10.19007
   304   2      14.251039649866138       18.84975772585004      14.292730000000001
   305   2      14.252021111820349      6.7194025406078346                12.30396
   306   2      14.268309763482565      5.4121133014847453                 5.06358
   307   1      14.268309763482566       17.54838027431045      3.0874199999999998
   308   1      14.268309763482566       17.54838027431045      7.1900700000000004
   309   2      14.578890686309972      20.817833898538158                12.30396
   310   1      14.579873792254061       8.687468849356712                 10.3278
   311   1      14.579873792254061       8.687468849356712                14.43045
   312   3      14.596316978964341      3.4440700085940903      5.2105499999999996
   313   2      14.596316978964341      3.4440700085940903      2.9496899999999999
   314   2      14.596316978964341      3.4440700085940903      7.0523499999999997
   315   2      14.596316978964342      15.580336981419796                 5.06358
   316   3      14.906736790784192      22.783932351408989                12.45093
   317   2      14.906736790784192      22.783932351408989                10.19007
   318   2      14.906736790784192      22.783932351408989      14.292730000000001
   319   2      14.907719896728278      10.653567302227545                12.30396
   320   2      14.924322550456244      1.4760365796426738                 5.06358
   321   1      14.924324194446118      13.612293688529141      3.0874199999999998
   322   1      14.924324194446118      13.612293688529141      7.1900700000000004
   323   2      15.234587827228026     0.47947457844569358                12.30396
   324   1      15.235570933172111      12.621643474915661                 10.3278
   325   1      15.235570933172111      12.621643474915661                14.43045
   326   3      15.252331409927894      23.780517368464192      5.2105499999999996
   327   2      15.252331409927894      23.780517368464192      2.9496899999999999
   328   2      15.252331409927894      23.780517368464192      7.0523499999999997
   329   2      15.252331409927892      11.644250395638487                 5.06358
   330   2      15.563417037646332      14.587741927786494                12.30396
   331   3      15.564400143590415      2.4573768786050509                12.45093
   332   2      15.564400143590415      2.4573768786050509                10.19007
   333   2      15.564400143590415      2.4573768786050509      14.292730000000001
   334   2       15.58033862540967      21.812474075573537                 5.06358
   335   1      15.580338625409668      9.6762071027478314      3.0874199999999998
   336   1      15.580338625409668      9.6762071027478314      7.1900700000000004
   337   1      15.891259854140797      16.555806592545498                 10.3278
   338   1      15.891259854140797      16.555806592545498                14.43045
   339   2      15.892251180034251      4.4254530512931662                12.30396
   340   3      15.908345840891446      19.844430782682881      5.2105499999999996
   341   2      15.908345840891446      19.844430782682881      2.9496899999999999
   342   2      15.908345840891446      19.844430782682881      7.0523499999999997
   343   2      15.908345840891444      7.7081638098571759                 5.06358
   344   2      16.219114178564382      18.521916553345442                12.30396
   345   3      16.220097284508466      6.3915515041639992                12.45093
   346   2      16.220097284508466      6.3915515041639992                10.19007
   347   2      16.220097284508466      6.3915515041639992      14.292730000000001
   348   2      16.236353056373222      17.876387489792226                 5.06358
   349   1      16.236353056373222      5.7401205169665213      3.0874199999999998
   350   1      16.236353056373222      5.7401205169665213      7.1900700000000004
   351   1      16.546956995058849      20.489981218104447                 10.3278
   352   1      16.546956995058849      20.489981218104447                14.43045
   353   2      16.547940101002936      8.3596161689230044                12.30396
   354   3      16.564360271854998      15.908344196901572      5.2105499999999996
   355   2      16.564360271854998      15.908344196901572      2.9496899999999999
   356   2      16.564360271854998      15.908344196901572      7.0523499999999997
   357   2      16.564360271854998      3.7720772240758662                 5.06358
   358   2      16.874803099533068      22.456079670975278                12.30396