(written by ASE)

1526 atoms
3 atom types

0.0      41.660780839593123  xlo xhi
0.0      41.660780839593123  ylo yhi
0.0      61.480760591600003  zlo zhi

Masses

     1       137.3269999646734 # Ba
     2      15.998999995884349 # O
     3      47.866999987686484 # Ti

Atoms # atomic

     1   2    0.085028154991652685      17.671672746632073                12.30396
     2   1    0.085575073800513018      38.502054480577321                 10.3278
     3   1    0.085575073800513018      38.502054480577321                14.43045
     4   3     0.09554891890852045       23.98361387055953      5.2105499999999996
     5   2     0.09554891890852045       23.98361387055953      2.9496899999999999
     6   2     0.09554891890852045       23.98361387055953      7.0523499999999997
     7   2    0.095548918908521019      3.1532187270462884                 5.06358
     8   2     0.27596890929791812      11.365212304708649                12.30396
     9   3     0.27651295462792402      32.195603616916749                12.45093
    10   2     0.27651295462792402      32.195603616916749                10.19007
    11   2     0.27651295462792402      32.195603616916749      14.292730000000001
    12   2     0.28665346150956011      9.4596686328805735                 5.06358
    13   1     0.28665346150956006      30.290063776393815      3.0874199999999998
    14   1     0.28665346150956006      30.290063776393815      7.1900700000000004
    15   1     0.46745083545533406      25.889152753256184                 10.3278
    16   1     0.46745083545533406      25.889152753256184                14.43045
    17   2     0.46800445904819188      5.0587566519166565                12.30396
    18   3     0.47775800411059977      36.596513682228093      5.2105499999999996
    19   2     0.47775800411059977      36.596513682228093      2.9496899999999999
    20   2     0.47775800411059977      36.596513682228093      7.0523499999999997
    21   2     0.47775800411059849      15.766118538714856                 5.06358
    22   3      0.6583887162827442      19.582701889595615                12.45093
    23   2      0.6583887162827442      19.582701889595615                10.19007
    24   2      0.6583887162827442      19.582701889595615      14.292730000000001
    25   2     0.65894521335445722      40.413086497019719                12.30396
    26   2     0.66886254671163725      22.072568444549141                 5.06358
    27   1     0.66886254671163792      1.2421733010358991      3.0874199999999998
    28   1     0.66886254671163792      1.2421733010358991      7.1900700000000004
    29   1     0.84932947058901043      13.276241447672191                 10.3278
    30   1     0.84932947058901043      13.276241447672191                14.43045
    31   2     0.84988309418186825      34.106635633359147                12.30396
    32   3     0.85996708931267696      7.5486232068701833      5.2105499999999996
    33   2     0.85996708931267696      7.5486232068701833      2.9496899999999999
    34   2     0.85996708931267696      7.5486232068701833      7.0523499999999997
    35   2     0.85996708931267685      28.379018350383426                 5.06358
    36   2      1.0408209750092792      27.800184769698578                12.30396
    37   3      1.0413650203392844      6.9697857948801962                12.45093
    38   2      1.0413650203392844      6.9697857948801962                10.19007
    39   2      1.0413650203392844      6.9697857948801962      14.292730000000001
    40   2      1.0510716319137148       34.68546825621771                 5.06358
    41   1      1.0510716319137152      13.855073112704469      3.0874199999999998
    42   1      1.0510716319137152      13.855073112704469      7.1900700000000004
    43   2      1.2317588558366892      21.493733906038006                12.30396
    44   1      1.2323029011666951     0.66333493121962672                 10.3278
    45   1      1.2323029011666951     0.66333493121962672                14.43045
    46   3      1.2421761745147539      20.161523018538752      5.2105499999999996
    47   2      1.2421761745147539      20.161523018538752      2.9496899999999999
    48   2      1.2421761745147539      20.161523018538752      7.0523499999999997
    49   2      1.2421761745147561      40.991918162051995                 5.06358
    50   2      1.4226900318801032      15.187270590635732                12.30396
    51   3      1.4232436554729606       36.01766477632269                12.45093
    52   2      1.4232436554729606       36.01766477632269                10.19007
    53   2      1.4232436554729606       36.01766477632269      14.292730000000001
    54   2      1.4332807171157937       5.637577780859794                 5.06358
    55   1      1.4332807171157946      26.467972924373036      3.0874199999999998
    56   1      1.4332807171157946      26.467972924373036      7.1900700000000004
    57   2      1.6136279127075133      8.8808197269751616                12.30396
    58   1      1.6141815363003715      29.711213912662117                 10.3278
    59   1      1.6141815363003715      29.711213912662117                14.43045
    60   3      1.6243852597168333      32.774422830207314      5.2105499999999996
    61   2      1.6243852597168333      32.774422830207314      2.9496899999999999
    62   2      1.6243852597168333      32.774422830207314      7.0523499999999997
    63   2       1.624385259716832      11.944027686694078                 5.06358
    64   3      1.8051194171277816      23.404763049001549                12.45093
    65   2      1.8051194171277816      23.404763049001549                10.19007
    66   2      1.8051194171277816      23.404763049001549      14.292730000000001
    67   2      1.8056730407206396      2.5743669476620226                12.30396
    68   2      1.8154898023178716      18.250477592528362                 5.06358
    69   1      1.8154898023178729      39.080872736041606      3.0874199999999998
    70   1      1.8154898023178729      39.080872736041606      7.1900700000000004
    71   1      1.9960601714340485      17.098302607078129                 10.3278
    72   1      1.9960601714340485      17.098302607078129                14.43045
    73   2       1.996604216764053      37.928693919286232                12.30396
    74   3      2.0065943449189105      3.7265323548494051      5.2105499999999996
    75   2      2.0065943449189105      3.7265323548494051      2.9496899999999999
    76   2      2.0065943449189105      3.7265323548494051      7.0523499999999997
    77   2      2.0065943449189105      24.556927498362647                 5.06358
    78   3      2.1869980522614583       10.79185174341756                12.45093
    79   2      2.1869980522614583       10.79185174341756                10.19007
    80   2      2.1869980522614583       10.79185174341756      14.292730000000001
    81   2      2.1875420975914639       31.62224305562566                12.30396
    82   2      2.1976988875199486      30.863377404196932                 5.06358
    83   1       2.197698887519949       10.03298226068369      3.0874199999999998
    84   1       2.197698887519949       10.03298226068369      7.1900700000000004
    85   2      2.3784828518977297       25.31578261370224                12.30396
    86   1      2.3790336020117322      4.4853960906255637                 10.3278
    87   1      2.3790336020117322      4.4853960906255637                14.43045
    88   3      2.3888034301209875      16.339432166517973      5.2105499999999996
    89   2      2.3888034301209875      16.339432166517973      2.9496899999999999
    90   2      2.3888034301209875      16.339432166517973      7.0523499999999997
    91   2      2.3888034301209897      37.169827310031216                 5.06358
    92   2      2.5694207327251406      19.009331750041667                12.30396
    93   3      2.5699743563179989      39.839725935728623                12.45093
    94   2      2.5699743563179989      39.839725935728623                10.19007
    95   2      2.5699743563179989      39.839725935728623      14.292730000000001
    96   2      2.5799079727220273      1.8154869288390159                 5.06358
    97   1      2.5799079727220273      22.645882072352258      3.0874199999999998
    98   1      2.5799079727220273      22.645882072352258      7.1900700000000004
    99   2      2.7603586135525506      12.702880886381099                12.30396
   100   1       2.760912237145408      33.533275072068058                 10.3278
   101   1       2.760912237145408      33.533275072068058                14.43045
   102   3      2.7710125153230654      28.952331978186542      5.2105499999999996
   103   2      2.7710125153230654      28.952331978186542      2.9496899999999999
   104   2      2.7710125153230654      28.952331978186542      7.0523499999999997
   105   2      2.7710125153230658      8.1219368346732992                 5.06358
   106   3      2.9518529914516747      27.226814630144634                12.45093
   107   2      2.9518529914516747      27.226814630144634                10.19007
   108   2      2.9518529914516747      27.226814630144634      14.292730000000001
   109   2      2.9523941633028246      6.3964252335891034                12.30396
   110   2      2.9621170579241043      14.428386740507586                 5.06358
   111   1      2.9621170579241047      35.258781884020827      3.0874199999999998
   112   1      2.9621170579241047      35.258781884020827      7.1900700000000004
   113   1      3.1427908722790847      20.920363766484066                 10.3278
   114   1      3.1427908722790847      20.920363766484066                14.43045
   115   2      3.1433320441302355     0.08997436992853404                12.30396
   116   3      3.1532216005251446      41.565231789855105      5.2105499999999996
   117   2      3.1532216005251446      41.565231789855105      2.9496899999999999
   118   2      3.1532216005251446      41.565231789855105      7.0523499999999997
   119   2      3.1532216005251441      20.734836646341869                 5.06358
   120   3      3.3337191748436434      14.613910029344639                12.45093
   121   2      3.3337191748436434      14.613910029344639                10.19007
   122   2      3.3337191748436434      14.613910029344639      14.292730000000001
   123   2      3.3342727984365004        35.4443042150316                12.30396
   124   2       3.344326143126183      27.041286552176153                 5.06358
   125   1      3.3443261431261826      6.2108914086629108      3.0874199999999998
   126   1      3.3443261431261826      6.2108914086629108      7.1900700000000004
   127   1      3.5246570556710539      8.3074591656840706                 10.3278
   128   1      3.5246570556710539      8.3074591656840706                14.43045
   129   2      3.5252135527427679      29.137843773108173                12.30396
   130   3      3.5354306857272211      12.517341314497195      5.2105499999999996
   131   2      3.5354306857272211      12.517341314497195      2.9496899999999999
   132   2      3.5354306857272211      12.517341314497195      7.0523499999999997
   133   2      3.5354306857272233      33.347736458010438                 5.06358
   134   2      3.7161514335701784      22.831392909447604                12.30396
   135   3      3.7167021836841805      2.0010063863709302                12.45093
   136   2      3.7167021836841805      2.0010063863709302                10.19007
   137   2      3.7167021836841805      2.0010063863709302      14.292730000000001
   138   2      3.7265352283282613      39.654186363844715                 5.06358
   139   1      3.7265352283282618      18.823791220331479      3.0874199999999998
   140   1      3.7265352283282618      18.823791220331479      7.1900700000000004
   141   2      3.9070893143975884      16.524942045787036                12.30396
   142   1      3.9076333597275945      37.355333357995129                 10.3278
   143   1      3.9076333597275945      37.355333357995129                14.43045
   144   3      3.9176397709292989      25.130241126165764      5.2105499999999996
   145   2      3.9176397709292989      25.130241126165764      2.9496899999999999
   146   2      3.9176397709292989      25.130241126165764      7.0523499999999997
   147   2      3.9176397709292989      4.2998459826525215                 5.06358
   148   2      4.0980271952249989      10.218491182126467                12.30396
   149   3      4.0985741140338598      31.048872916071719                12.45093
   150   2      4.0985741140338598      31.048872916071719                10.19007
   151   2      4.0985741140338598      31.048872916071719      14.292730000000001
   152   2      4.1087443135303383      10.606295888486807                 5.06358
   153   1      4.1087443135303383      31.436691032000049      3.0874199999999998
   154   1      4.1087443135303383      31.436691032000049      7.1900700000000004
   155   1      4.2895119948612699      24.742422052411147                 10.3278
   156   1      4.2895119948612699      24.742422052411147                14.43045
   157   2      4.2900627449752724      3.9120355293344709                12.30396
   158   3      4.2998488561313781      37.743140937834326      5.2105499999999996
   159   2      4.2998488561313781      37.743140937834326      2.9496899999999999
   160   2      4.2998488561313781      37.743140937834326      7.0523499999999997
   161   2      4.2998488561313772       16.91274579432109                 5.06358
   162   3      4.4804498756886808      18.435971188750575                12.45093
   163   2      4.4804498756886808      18.435971188750575                10.19007
   164   2      4.4804498756886808      18.435971188750575      14.292730000000001
   165   2      4.4810034992815391      39.266365374437527                12.30396
   166   2      4.4909533987324153      23.219195700155375                 5.06358
   167   1      4.4909533987324162      2.3888005566421326      3.0874199999999998
   168   1      4.4909533987324162      2.3888005566421326      7.1900700000000004
   169   1      4.6713877565160908      12.129520325090008                 10.3278
   170   1      4.6713877565160908      12.129520325090008                14.43045
   171   2       4.671944253587804      32.959904932514114                12.30396
   172   3      4.6820579413334551       8.695250462476416      5.2105499999999996
   173   2      4.6820579413334551       8.695250462476416      2.9496899999999999
   174   2      4.6820579413334551       8.695250462476416      7.0523499999999997
   175   2      4.6820579413334551      29.525645605989659                 5.06358
   176   2      4.8628821344152158      26.653454068853542                12.30396
   177   3      4.8634233062663652      5.8230646722980106                12.45093
   178   2      4.8634233062663652      5.8230646722980106                10.19007
   179   2      4.8634233062663652      5.8230646722980106      14.292730000000001
   180   2      4.8731624839344931      35.832095511823944                 5.06358
   181   1       4.873162483934494      15.001700368310702      3.0874199999999998
   182   1       4.873162483934494      15.001700368310702      7.1900700000000004
   183   2      5.0538104369797736      20.347000331714117                12.30396
   184   1      5.0543640605726292      41.177394517401076                 10.3278
   185   1      5.0543640605726292      41.177394517401076                14.43045
   186   3      5.0642670265355321      21.308150274144985      5.2105499999999996
   187   2      5.0642670265355321      21.308150274144985      2.9496899999999999
   188   2      5.0642670265355321      21.308150274144985      7.0523499999999997
   189   2      5.0642641530566772     0.47776470889459555                 5.06358
   190   2      5.2447483178071836      14.040549468053547                12.30396
   191   3      5.2453048148788977      34.870934075477649                12.45093
   192   2      5.2453048148788977      34.870934075477649                10.19007
   193   2      5.2453048148788977      34.870934075477649      14.292730000000001
   194   2      5.2553715691365719      6.7842050364660276                 5.06358
   195   1      5.2553715691365728       27.61460017997927      3.0874199999999998
   196   1      5.2553715691365728       27.61460017997927      7.1900700000000004
   197   2      5.4356890721134503      7.7340890261301256                12.30396
   198   1      5.4362426957063068       28.56448321181708                 10.3278
   199   1      5.4362426957063068       28.56448321181708                14.43045
   200   3      5.4464761117376117      33.921050085813548      5.2105499999999996
   201   2      5.4464761117376117      33.921050085813548      2.9496899999999999
   202   2      5.4464761117376117      33.921050085813548      7.0523499999999997
   203   2      5.4464761117376108      13.090654942300311                 5.06358
   204   3      5.6271805765337186      22.258032348156512                12.45093
   205   2      5.6271805765337186      22.258032348156512                10.19007
   206   2      5.6271805765337186      22.258032348156512      14.292730000000001
   207   2      5.6277342001265769      1.4276362468169854                12.30396
   208   2      5.6375806543386497      19.397104848134596                 5.06358
   209   1      5.6375806543386497      40.227499991647832      3.0874199999999998
   210   1      5.6375806543386497      40.227499991647832      7.1900700000000004
   211   1      5.8181184573611286      15.951581484495943                 10.3278
   212   1      5.8181184573611286      15.951581484495943                14.43045
   213   2      5.8186653761699869      36.781963218441199                12.30396
   214   3      5.8286851969396878      4.8731596104556383      5.2105499999999996
   215   2      5.8286851969396878      4.8731596104556383      2.9496899999999999
   216   2      5.8286851969396878      4.8731596104556383      7.0523499999999997
   217   2      5.8286851969396887      25.703554753968881                 5.06358
   218   3      6.0090592116673944      9.6451210425725211                12.45093
   219   2      6.0090592116673944      9.6451210425725211                10.19007
   220   2      6.0090592116673944      9.6451210425725211      14.292730000000001
   221   2      6.0096032569974005      30.475512354780623                12.30396
   222   2      6.0197897395407267      32.010004659803165                 5.06358
   223   1      6.0197897395407276      11.179609516289924      3.0874199999999998
   224   1      6.0197897395407276      11.179609516289924      7.1900700000000004
   225   2      6.2005411378248105      24.169061491120054                12.30396
   226   1      6.2010947614176688      3.3386653897805258                 10.3278
   227   1      6.2010947614176688      3.3386653897805258                14.43045
   228   3      6.2108942821417656      17.486059422124207      5.2105499999999996
   229   2      6.2108942821417656      17.486059422124207      2.9496899999999999
   230   2      6.2108942821417656      17.486059422124207      7.0523499999999997
   231   2      6.2108942821417665      38.316454565637443                 5.06358
   232   2      6.3914790186522206      17.862610627459482                12.30396
   233   3      6.3920355157239346       38.69299523488359                12.45093
   234   2      6.3920355157239346       38.69299523488359                10.19007
   235   2      6.3920355157239346       38.69299523488359      14.292730000000001
   236   2      6.4019988247428055       2.962114184445249                 5.06358
   237   1      6.4019988247428055      23.792509327958491      3.0874199999999998
   238   1      6.4019988247428055      23.792509327958491      7.1900700000000004
   239   2      6.5824197729584881       11.55615018553606                12.30396
   240   1      6.5829733965513455      32.386544371223017                 10.3278
   241   1      6.5829733965513455      32.386544371223017                14.43045
   242   3      6.5931033673438435      30.098959233792776      5.2105499999999996
   243   2      6.5931033673438435      30.098959233792776      2.9496899999999999
   244   2      6.5931033673438435      30.098959233792776      7.0523499999999997
   245   2      6.5931033673438444      9.2685640902795345                 5.06358
   246   3      6.7739112773787564      26.080093507562445                12.45093
   247   2      6.7739112773787564      26.080093507562445                10.19007
   248   2      6.7739112773787564      26.080093507562445      14.292730000000001
   249   2      6.7744553227087607      5.2496945327440656                12.30396
   250   2      6.7842079099448824      15.575013996113819                 5.06358
   251   1      6.7842079099448815      36.405409139627061      3.0874199999999998
   252   1      6.7842079099448815      36.405409139627061      7.1900700000000004
   253   1      6.9648395799433143      19.773639770423021                 10.3278
   254   1      6.9648395799433143      19.773639770423021                14.43045
   255   2      6.9653960770150283      40.604024377847125                12.30396
   256   3      6.9753095790670665      1.0510783366977123      5.2105499999999996
   257   2      6.9753095790670665      1.0510783366977123      2.9496899999999999
   258   2      6.9753095790670665      1.0510783366977123      7.0523499999999997
   259   2      6.9753124525459222      21.881463901948102                 5.06358
   260   3      7.1557803342495809      13.467179328499601                12.45093
   261   2      7.1557803342495809      13.467179328499601                10.19007
   262   2      7.1557803342495809      13.467179328499601      14.292730000000001
   263   2      7.1563339578424365       34.29757351418656                12.30396
   264   2      7.1664169951469612      28.187913807782387                 5.06358
   265   1      7.1664169951469612      7.3575186642691444      3.0874199999999998
   266   1      7.1664169951469612      7.3575186642691444      7.1900700000000004
   267   1      7.3467182150769901      7.1607284648390328                 10.3278
   268   1      7.3467182150769901      7.1607284648390328                14.43045
   269   2      7.3472718386698492      27.991122650525988                12.30396
   270   3      7.3575215377479992      13.663968570103428      5.2105499999999996
   271   2      7.3575215377479992      13.663968570103428      2.9496899999999999
   272   2      7.3575215377479992      13.663968570103428      7.0523499999999997
   273   2      7.3575215377480001      34.494363713616664                 5.06358
   274   2      7.5382125929761141      21.684662208602571                12.30396
   275   3      7.5387633430901166     0.85427568552589295                12.45093
   276   2      7.5387633430901166     0.85427568552589295                10.19007
   277   2      7.5387633430901166     0.85427568552589295      14.292730000000001
   278   2      7.5486260803490399      40.800813619450949                 5.06358
   279   1      7.5486260803490399      19.970418475937713      3.0874199999999998
   280   1      7.5486260803490399      19.970418475937713      7.1900700000000004
   281   2       7.729150473803525      15.378211344941997                12.30396
   282   1      7.7296945191335302      36.208602657150102                 10.3278
   283   1      7.7296945191335302      36.208602657150102                14.43045
   284   3      7.7397306229500771      26.276868381771997      5.2105499999999996
   285   2      7.7397306229500771      26.276868381771997      2.9496899999999999
   286   2      7.7397306229500771      26.276868381771997      7.0523499999999997
   287   2       7.739730622950078       5.446473238258756                 5.06358
   288   2      7.9200883546309342      9.0717604812814283                12.30396
   289   3      7.9206323999609394      29.902151793489526                12.45093
   290   2      7.9206323999609394      29.902151793489526                10.19007
   291   2      7.9206323999609394      29.902151793489526      14.292730000000001
   292   2       7.930835165551116      11.752923144093041                 5.06358
   293   1      7.9308351655511151      32.583318287606282      3.0874199999999998
   294   1      7.9308351655511151      32.583318287606282      7.1900700000000004
   295   1      8.1115731542672069      23.595691351566106                 10.3278
   296   1      8.1115731542672069      23.595691351566106                14.43045
   297   2      8.1121239043812086       2.765304828489433                12.30396
   298   3      8.1219397081521567       38.88976819344056      5.2105499999999996
   299   2      8.1219397081521567       38.88976819344056      2.9496899999999999
   300   2      8.1219397081521567       38.88976819344056      7.0523499999999997
   301   2      8.1219397081521567      18.059373049927324                 5.06358
   302   3      8.3025110350946179      17.289240487905538                12.45093
   303   2      8.3025110350946179      17.289240487905538                10.19007
   304   2      8.3025110350946179      17.289240487905538      14.292730000000001
   305   2      8.3030646586874752      38.119634673592493                12.30396
   306   2      8.3130442507531939      24.365822955761608                 5.06358
   307   1      8.3130442507531956      3.5354278122483662      3.0874199999999998
   308   1      8.3130442507531956      3.5354278122483662      7.1900700000000004
   309   1      8.4934489159220288      10.982789624244969                 10.3278
   310   1      8.4934489159220288      10.982789624244969                14.43045
   311   2      8.4940025395148862      31.813183809931925                12.30396
   312   3      8.5041487933542328      9.8418777180826496      5.2105499999999996
   313   2      8.5041487933542328      9.8418777180826496      2.9496899999999999
   314   2      8.5041487933542328      9.8418777180826496      7.0523499999999997
   315   2       8.504148793354231      30.672272861595893                 5.06358
   316   2       8.684933715558298      25.506720494529649                12.30396
   317   3      8.6854844656723014      4.6763339714529737                12.45093
   318   2      8.6854844656723014      4.6763339714529737                10.19007
   319   2      8.6854844656723014      4.6763339714529737      14.292730000000001
   320   2      8.6952533359552717      36.978722767430177                 5.06358
   321   1      8.6952533359552735      16.148327623916938      3.0874199999999998
   322   1      8.6952533359552735      16.148327623916938      7.1900700000000004
   323   2      8.8758715963857107       19.20026963086908                12.30396
   324   1      8.8764252199785663      40.030663816556043                 10.3278
   325   1      8.8764252199785663      40.030663816556043                14.43045
   326   3      8.8863578785563107      22.454777529751219      5.2105499999999996
   327   2      8.8863578785563107      22.454777529751219      2.9496899999999999
   328   2      8.8863578785563107      22.454777529751219      7.0523499999999997
   329   2      8.8863550050774567      1.6243919645008293                 5.06358
   330   2      9.0668094772131216      12.893818767208508                12.30396
   331   3       9.067363100805979      33.724212952895464                12.45093
   332   2       9.067363100805979      33.724212952895464                10.19007
   333   2       9.067363100805979      33.724212952895464      14.292730000000001
   334   2      9.0774624211573496      7.9308322920722611                 5.06358
   335   1      9.0774624211573496      28.761227435585504      3.0874199999999998
   336   1      9.0774624211573496      28.761227435585504      7.1900700000000004
   337   2      9.2577473580405307        6.58736790354794                12.30396
   338   1      9.2583038551122421       27.41775251097204                 10.3278
   339   1      9.2583038551122421       27.41775251097204                14.43045
   340   3      9.2685669637583903      35.067677341419781      5.2105499999999996
   341   2      9.2685669637583903      35.067677341419781      2.9496899999999999
   342   2      9.2685669637583903      35.067677341419781      7.0523499999999997
   343   2      9.2685669637583903      14.237282197906545                 5.06358
   344   3      9.4492417359396548      21.111301647311475                12.45093
   345   2      9.4492417359396548      21.111301647311475                10.19007
   346   2      9.4492417359396548      21.111301647311475      14.292730000000001
   347   2      9.4497924860536582     0.28091512423480031                12.30396
   348   2      9.4596715063594274       20.54373210374083                 5.06358
   349   1      9.4596715063594292      41.374127247254066      3.0874199999999998
   350   1      9.4596715063594292      41.374127247254066      7.1900700000000004
   351   1      9.6401796167670657      14.804850783650906                 10.3278
   352   1      9.6401796167670657      14.804850783650906                14.43045
   353   2      9.6407236620970682      35.635242095859006                12.30396
   354   3      9.6507760489604664      6.0197868660618719      5.2105499999999996
   355   2      9.6507760489604664      6.0197868660618719      2.9496899999999999
   356   2      9.6507760489604664      6.0197868660618719      7.0523499999999997
   357   2      9.6507760489604646      26.850182009575114                 5.06358