(written by ASE)

406 atoms
3 atom types

0.0       21.48884907005775  xlo xhi
0.0       21.48884907005775  ylo yhi
0.0      61.480760591600003  zlo zhi

Masses

     1       137.3269999646734 # Ba
     2      15.998999995884349 # O
     3      47.866999987686484 # Ti

Atoms # atomic

     1   2     0.17452204967893881      18.343835989778036                12.30396
     2   3     0.17504942443936161      7.5983579826172605                12.45093
     3   2     0.17504942443936161      7.5983579826172605                10.19007
     4   2     0.17504942443936161      7.5983579826172605      14.292730000000001
     5   2     0.18525152631880884      3.1492220957716768                 5.06358
     6   1     0.18525152631880892      13.893649067318368      3.0874199999999998
     7   1     0.18525152631880892      13.893649067318368      7.1900700000000004
     8   1     0.54523493804869616      1.3009425432474082                 10.3278
     9   1     0.54523493804869616      1.3009425432474082                14.43045
    10   2      0.5457678836692641      12.044305480506345                12.30396
    11   3     0.55574900809628081      20.192106257535393      5.2105499999999996
    12   2     0.55574900809628081      20.192106257535393      2.9496899999999999
    13   2     0.55574900809628081      20.192106257535393      7.0523499999999997
    14   2     0.55574900809628092      9.4476792859887038                 5.06358
    15   2     0.91595154032521708      5.7458352916156459                12.30396
    16   3     0.91648448594578558      16.489198228874582                12.45093
    17   2     0.91648448594578558      16.489198228874582                10.19007
    18   2     0.91648448594578558      16.489198228874582      14.292730000000001
    19   2      0.9262464898737528      15.746136476205727                 5.06358
    20   1     0.92624648987375291      5.0017095046590372      3.0874199999999998
    21   1     0.92624648987375291      5.0017095046590372      7.1900700000000004
    22   2      1.2861463387014598      20.937270081432413                12.30396
    23   1      1.2866699995551201       10.19178278950473                 10.3278
    24   1      1.2866699995551201       10.19178278950473                14.43045
    25   3      1.2967439716512248      11.300166694876063      5.2105499999999996
    26   2      1.2967439716512248      11.300166694876063      2.9496899999999999
    27   2      1.2967439716512248      11.300166694876063      7.0523499999999997
    28   2      1.2967346868843161     0.55574343723613551                 5.06358
    29   3      1.6568555131644545      3.8943673501348774                12.45093
    30   2      1.6568555131644545      3.8943673501348774                10.19007
    31   2      1.6568555131644545      3.8943673501348774      14.292730000000001
    32   2      1.6573866018316405      14.636675537872968                12.30396
    33   2       1.667241453428697      6.8541969135463976                 5.06358
    34   1      1.6672414534286968      17.598623885093087      3.0874199999999998
    35   1      1.6672414534286968      17.598623885093087      7.1900700000000004
    36   1      2.0270484545873173      19.084747390430799                 10.3278
    37   1      2.0270484545873173      19.084747390430799                14.43045
    38   2      2.0275721154409756      8.3392600985031162                12.30396
    39   3      2.0377296504392604      2.4082308461234962      5.2105499999999996
    40   2      2.0377296504392604      2.4082308461234962      2.9496899999999999
    41   2      2.0377296504392604      2.4082308461234962      7.0523499999999997
    42   2      2.0377389352061694      13.152654103763425                 5.06358
    43   2      2.3977576290503104      2.0418446591332637                12.30396
    44   3      2.3982942885776422       12.78521688115911                12.45093
    45   2      2.3982942885776422       12.78521688115911                10.19007
    46   2      2.3982942885776422       12.78521688115911      14.292730000000001
    47   2      2.4082364169836414       19.45111129398045                 5.06358
    48   1      2.4082364169836414      8.7066843224337589      3.0874199999999998
    49   1      2.4082364169836414      8.7066843224337589      7.1900700000000004
    50   1      2.7684742313268313      6.4867374075015025                 10.3278
    51   1      2.7684742313268313      6.4867374075015025                14.43045
    52   2       2.769010890854164      17.230109629527348                12.30396
    53   3       2.778733898761113      15.005141512650784      5.2105499999999996
    54   2       2.778733898761113      15.005141512650784      2.9496899999999999
    55   2       2.778733898761113      15.005141512650784      7.0523499999999997
    56   2      2.7787246139942043      4.2607182550108567                 5.06358
    57   3      3.1386597449361657     0.18932196813164967                12.45093
    58   2      3.1386597449361657     0.18932196813164967                10.19007
    59   2      3.1386597449361657     0.18932196813164967      14.292730000000001
    60   2      3.1391964044634979      10.932694190157495                12.30396
    61   2      3.1492313805385854      10.559171731321118                 5.06358
    62   1      3.1492313805385859      21.303598702867809      3.0874199999999998
    63   1      3.1492313805385859      21.303598702867809      7.1900700000000004
    64   2      3.5093782041660688      4.6352694660207341                12.30396
    65   1      3.5099130067400184      15.377586938525733                 10.3278
    66   1      3.5099130067400184      15.377586938525733                14.43045
    67   3      3.5197195775491488      6.1132056638982171      5.2105499999999996
    68   2      3.5197195775491488      6.1132056638982171      2.9496899999999999
    69   2      3.5197195775491488      6.1132056638982171      7.0523499999999997
    70   2       3.519728862316057      16.857628921538144                 5.06358
    71   2       3.879571145588931      19.825649506316655                12.30396
    72   3      3.8800985203493532      9.0801714991558811                12.45093
    73   2      3.8800985203493532      9.0801714991558811                10.19007
    74   2      3.8800985203493532      9.0801714991558811      14.292730000000001
    75   2      3.8902170593266212      1.6672358825685518                 5.06358
    76   1      3.8902263440935299       12.41165914020848      3.0874199999999998
    77   1      3.8902263440935299       12.41165914020848      7.1900700000000004
    78   1      4.2502803200519246      2.7827467750191199                 10.3278
    79   1      4.2502803200519246      2.7827467750191199                14.43045
    80   2      4.2508169795792563      13.526118997044964                12.30396
    81   3      4.2607238258710014      18.710116330425507      5.2105499999999996
    82   2      4.2607238258710014      18.710116330425507      2.9496899999999999
    83   2      4.2607238258710014      18.710116330425507      7.0523499999999997
    84   2      4.2607145411040932      7.9656930727855784                 5.06358
    85   2      4.6209969223284455      7.2276395233873583                12.30396
    86   3      4.6215335818557763        17.9710117454132                12.45093
    87   2      4.6215335818557763        17.9710117454132                10.19007
    88   2      4.6215335818557763        17.9710117454132      14.292730000000001
    89   2      4.6312213076484738      14.264146549095839                 5.06358
    90   1      4.6312120228815647      3.5197232914559118      3.0874199999999998
    91   1      4.6312120228815647      3.5197232914559118      7.1900700000000004
    92   2      4.9911824359377794     0.93022408401750534                12.30396
    93   1      4.9917190954651112      11.673596306043351                 10.3278
    94   1      4.9917190954651112      11.673596306043351                14.43045
    95   3      5.0017095046590372      9.8181804816729379      5.2105499999999996
    96   2      5.0017095046590372      9.8181804816729379      2.9496899999999999
    97   2      5.0017095046590372      9.8181804816729379      7.0523499999999997
    98   2      5.0017187894259463      20.562603739312866                 5.06358
    99   2      5.3634867333557148      16.116377698416514                12.30396
   100   3      5.3640196789762831      5.3708866925820704                12.45093
   101   2      5.3640196789762831      5.3708866925820704                10.19007
   102   2      5.3640196789762831      5.3708866925820704      14.292730000000001
   103   2      5.3722069864365096      5.3722107003432722                 5.06358
   104   1      5.3722162712034178      16.116633957983201      3.0874199999999998
   105   1      5.3722162712034178      16.116633957983201      7.1900700000000004
   106   1      5.7320938365905443      20.566551622202507                 10.3278
   107   1      5.7320938365905443      20.566551622202507                14.43045
   108   2      5.7326212113509678      9.8210736150417368                12.30396
   109   3      5.7427044682139812     0.92624091901360783      5.2105499999999996
   110   2      5.7427044682139812     0.92624091901360783      2.9496899999999999
   111   2      5.7427044682139812     0.92624091901360783      7.0523499999999997
   112   2      5.7427044682139812      11.670667890560299                 5.06358
   113   2      6.1028067249603026      3.5236581756718843                12.30396
   114   3        6.10333967058087       14.26702111293082                12.45093
   115   2        6.10333967058087       14.26702111293082                10.19007
   116   2        6.10333967058087       14.26702111293082      14.292730000000001
   117   2      6.1132112347583627       17.96912136687056                 5.06358
   118   1      6.1132019499914536      7.2246981092306335      3.0874199999999998
   119   1      6.1132019499914536      7.2246981092306335      7.1900700000000004
   120   1      6.4735233272368236      7.9685509240401231                 10.3278
   121   1      6.4735233272368236      7.9685509240401231                14.43045
   122   2      6.4740562728573909       18.71191386129906                12.30396
   123   3      6.4836994317689252      13.523155299447659      5.2105499999999996
   124   2      6.4836994317689252      13.523155299447659      2.9496899999999999
   125   2      6.4836994317689252      13.523155299447659      7.0523499999999997
   126   2      6.4836994317689252      2.7787283279009678                 5.06358
   127   3      6.8437088408461575      1.6711354846702702                12.45093
   128   2      6.8437088408461575      1.6711354846702702                10.19007
   129   2      6.8437088408461575      1.6711354846702702      14.292730000000001
   130   2      6.8442417864667258      12.414498421929206                12.30396
   131   2      6.8541969135463976       9.077185518117993                 5.06358
   132   1      6.8542061983133067      19.821608775757923      3.0874199999999998
   133   1      6.8542061983133067      19.821608775757923      7.1900700000000004
   134   2      7.2144273000760606      6.1170829825593547                12.30396
   135   1      7.2149583887432476      16.859391170297446                 10.3278
   136   1      7.2149583887432476      16.859391170297446                14.43045
   137   3        7.22469439532387      4.6312157367883282      5.2105499999999996
   138   2        7.22469439532387      4.6312157367883282      2.9496899999999999
   139   2        7.22469439532387      4.6312157367883282      7.0523499999999997
   140   2      7.2246943953238691      15.375642708335018                 5.06358
   141   2      7.5846165275921589      21.307453738088366                12.30396
   142   3      7.5851439023525815      10.561975730927593                12.45093
   143   2      7.5851439023525815      10.561975730927593                10.19007
   144   2      7.5851439023525815      10.561975730927593      14.292730000000001
   145   2      7.5951918771013416     0.18524595545866387                 5.06358
   146   1      7.5951918771013425      10.929672927005354      3.0874199999999998
   147   1      7.5951918771013425      10.929672927005354      7.1900700000000004
   148   1      7.9553294159619163      4.2645602915577401                 10.3278
   149   1      7.9553294159619163      4.2645602915577401                14.43045
   150   2      7.9558623615824846      15.007923228816678                12.30396
   151   3       7.965689358878814      17.228130117222381      5.2105499999999996
   152   2       7.965689358878814      17.228130117222381      2.9496899999999999
   153   2       7.965689358878814      17.228130117222381      7.0523499999999997
   154   2       7.965689358878814      6.4837031456756895                 5.06358
   155   2      8.3260460182384382      8.7094530399259771                12.30396
   156   3      8.3265789638590046      19.452815977184915                12.45093
   157   2      8.3265789638590046      19.452815977184915                10.19007
   158   2      8.3265789638590046      19.452815977184915      14.292730000000001
   159   2      8.3361868406562856      12.782160335892714                 5.06358
   160   1      8.3361868406562856      2.0377333643460238      3.0874199999999998
   161   1      8.3361868406562856      2.0377333643460238      7.1900700000000004
   162   2      8.6962315318477721      2.4120376005561255                12.30396
   163   1      8.6967644774683404      13.155400537815062                 10.3278
   164   1      8.6967644774683404      13.155400537815062                14.43045
   165   3      8.7066843224337589      8.3361905545630499      5.2105499999999996
   166   2      8.7066843224337589      8.3361905545630499      2.9496899999999999
   167   2      8.7066843224337589      8.3361905545630499      7.0523499999999997
   168   2      8.7066843224337589      19.080617526109741                 5.06358
   169   3      9.0669499910776743      6.8579850984452086                12.45093
   170   2      9.0669499910776743      6.8579850984452086                10.19007
   171   2      9.0669499910776743      6.8579850984452086      14.292730000000001
   172   2      9.0674810797448622      17.600293286183302                12.30396
   173   2      9.0771818042112304      3.8902207732333847                 5.06358
   174   1      9.0771818042112304      14.634647744780075      3.0874199999999998
   175   1      9.0771818042112304      14.634647744780075      7.1900700000000004
   176   1      9.4371429325005369     0.55951119564774732                 10.3278
   177   1      9.4371429325005369     0.55951119564774732                14.43045
   178   2      9.4376665933541961      11.302877846813448                12.30396
   179   3      9.4476792859887038      20.933104934997104      5.2105499999999996
   180   2      9.4476792859887038      20.933104934997104      2.9496899999999999
   181   2      9.4476792859887038      20.933104934997104      7.0523499999999997
   182   2       9.447679285988702      10.188677963450411                 5.06358
   183   2        9.80785210696353      5.0054624074435949                12.30396
   184   3      9.8083850525841001      15.748825344702533                12.45093
   185   2      9.8083850525841001      15.748825344702533                10.19007
   186   2      9.8083850525841001      15.748825344702533      14.292730000000001
   187   2      9.8181767677661753      16.487135153667435                 5.06358
   188   1      9.8181767677661753      5.7427081821207455      3.0874199999999998
   189   1      9.8181767677661753      5.7427081821207455      7.1900700000000004
   190   2      10.178043191433011      20.196887912493452                12.30396
   191   1       10.17856870924005      9.4503551558118346                 10.3278
   192   1       10.17856870924005      9.4503551558118346                14.43045
   193   3      10.188674249543647      12.041165372337771      5.2105499999999996
   194   2      10.188674249543647      12.041165372337771      2.9496899999999999
   195   2      10.188674249543647      12.041165372337771      7.0523499999999997
   196   2      10.188674249543647      1.2967384007910792                 5.06358
   197   3      10.548754222849386      3.1529397164419812                12.45093
   198   2      10.548754222849386      3.1529397164419812                10.19007
   199   2      10.548754222849386      3.1529397164419812      14.292730000000001
   200   2      10.549287168469954      13.896302653700918                12.30396
   201   2      10.559171731321118      7.5951955910081059                 5.06358
   202   1      10.559171731321118      18.339622562554798      3.0874199999999998
   203   1      10.559171731321118      18.339622562554798      7.1900700000000004
   204   1      10.918945307318866      18.344365221491842                 10.3278
   205   1      10.918945307318866      18.344365221491842                14.43045
   206   2       10.91947268207929      7.5988872143310653                12.30396
   207   3       10.92966921309859      3.1492258096784398      5.2105499999999996
   208   2       10.92966921309859      3.1492258096784398      2.9496899999999999
   209   2       10.92966921309859      3.1492258096784398      7.0523499999999997
   210   2       10.92966921309859       13.89365278122513                 5.06358
   211   2      11.289665623502152      1.3004133115336038                12.30396
   212   3       11.29018928435581      12.043779962699302                12.45093
   213   2       11.29018928435581      12.043779962699302                10.19007
   214   2       11.29018928435581      12.043779962699302      14.292730000000001
   215   2      11.300166694876063      20.192109971442157                 5.06358
   216   1      11.300166694876063      9.4476829998954663      3.0874199999999998
   217   1      11.300166694876063      9.4476829998954663      7.1900700000000004
   218   2      11.659847423204722      16.491842530490224                12.30396
   219   1      11.660374797965144      5.7463645233294507                 10.3278
   220   1      11.660374797965144      5.7463645233294507                14.43045
   221   3      11.670664176653535      15.746140190112492      5.2105499999999996
   222   2      11.670664176653535      15.746140190112492      2.9496899999999999
   223   2      11.670664176653535      15.746140190112492      7.0523499999999997
   224   2      11.670664176653535      5.0017132185658006                 5.06358
   225   3      12.030569596341389      20.937799313146218                12.45093
   226   2      12.030569596341389      20.937799313146218                10.19007
   227   2      12.030569596341389      20.937799313146218      14.292730000000001
   228   2      12.031091400241666       10.19125727169769                12.30396
   229   2      12.041161658431006      11.300170408782826                 5.06358
   230   1      12.041161658431008     0.55574343723613562      3.0874199999999998
   231   1      12.041161658431008     0.55574343723613562      7.1900700000000004
   232   1      12.400749539090578      14.639319839488611                 10.3278
   233   1      12.400749539090578      14.639319839488611                14.43045
   234   2         12.401276913851      3.8938418323278361                12.30396
   235   3       12.41165914020848      6.8542006274531611      5.2105499999999996
   236   2       12.41165914020848      6.8542006274531611      2.9496899999999999
   237   2       12.41165914020848      6.8542006274531611      7.0523499999999997
   238   2       12.41165914020848      17.598627598999855                 5.06358
   239   2      12.771471712227243      19.085276622144601                12.30396
   240   3      12.771995373080902      8.3397893302169219                12.45093
   241   2      12.771995373080902      8.3397893302169219                10.19007
   242   2      12.771995373080902      8.3397893302169219      14.292730000000001
   243   2      12.782156621985951      2.4082308461234962                 5.06358
   244   1      12.782156621985951      13.152657817670187      3.0874199999999998
   245   1      12.782156621985951      13.152657817670187      7.1900700000000004
   246   1      13.142188314503764      2.0413154274194598                 10.3278
   247   1      13.142188314503764      2.0413154274194598                14.43045
   248   2      13.142711975357424      12.784682078585158                12.30396
   249   3      13.152654103763425      19.451115007887214      5.2105499999999996
   250   2      13.152654103763425      19.451115007887214      2.9496899999999999
   251   2      13.152654103763425      19.451115007887214      7.0523499999999997
   252   2      13.152654103763423      8.7066880363405215                 5.06358
   253   3        13.5123738281131      17.232753931142987                12.45093
   254   2        13.5123738281131      17.232753931142987                10.19007
   255   2        13.5123738281131      17.232753931142987      14.292730000000001
   256   2      13.512897488966759      6.4872666392153073                12.30396
   257   2      13.523151585540896      15.005145226557548                 5.06358
   258   1      13.523151585540896      4.2607182550108575      3.0874199999999998
   259   1      13.523151585540896      4.2607182550108575      7.1900700000000004
   260   2      13.883092287343002     0.18984748593869102                12.30396
   261   1      13.883614091243281      10.932159387583544                 10.3278
   262   1      13.883614091243281      10.932159387583544                14.43045
   263   3      13.893649067318368      10.559175445227881      5.2105499999999996
   264   2      13.893649067318368      10.559175445227881      2.9496899999999999
   265   2      13.893649067318368      10.559175445227881      7.0523499999999997
   266   2      13.893649067318368      21.303602416774574                 5.06358
   267   2      14.253275943998956      15.380231240141375                12.30396
   268   3      14.253799604852615      4.6347439482136927                12.45093
   269   2      14.253799604852615      4.6347439482136927                10.19007
   270   2      14.253799604852615      4.6347439482136927      14.292730000000001
   271   2      14.264146549095841      6.1132056638982171                 5.06358
   272   1      14.264146549095839      16.857632635444908      3.0874199999999998
   273   1      14.264146549095839      16.857632635444908      7.1900700000000004
   274   1      14.623994403228858      19.826178738030457                 10.3278
   275   1      14.623994403228858      19.826178738030457                14.43045
   276   2      14.624518064082517      9.0806914461027759                12.30396
   277   3      14.634644030873313      1.6672358825685512      5.2105499999999996
   278   2      14.634644030873313      1.6672358825685512      2.9496899999999999
   279   2      14.634644030873313      1.6672358825685512      7.0523499999999997
   280   2      14.634644030873311      12.411662854115242                 5.06358
   281   2       14.99471100550538      2.7822175433053151                12.30396
   282   3      14.995238380265802      13.525593479237923                12.45093
   283   2      14.995238380265802      13.525593479237923                10.19007
   284   2      14.995238380265802      13.525593479237923      14.292730000000001
   285   2      15.005141512650784      18.710120044332271                 5.06358
   286   1      15.005141512650784      7.9656930727855784      3.0874199999999998
   287   1      15.005141512650784      7.9656930727855784      7.1900700000000004
   288   2      15.364896519114714      17.973656047028847                12.30396
   289   1      15.365420179968373      7.2281687551011613                 10.3278
   290   1      15.365420179968373      7.2281687551011613                14.43045
   291   3      15.375638994428256      14.264150263002604      5.2105499999999996
   292   2      15.375638994428256      14.264150263002604      2.9496899999999999
   293   2      15.375638994428256      14.264150263002604      7.0523499999999997
   294   2      15.375638994428257      3.5197232914559127                 5.06358
   295   3      15.735614978344616     0.93074960182454625                12.45093
   296   2      15.735614978344616     0.93074960182454625                10.19007
   297   2      15.735614978344616     0.93074960182454625      14.292730000000001
   298   2      15.736140496151657      11.673070788236309                12.30396
   299   2      15.746136476205729      9.8181804816729379                 5.06358
   300   1      15.746136476205727      20.562607453219627      3.0874199999999998
   301   1      15.746136476205727      20.562607453219627      7.1900700000000004
   302   1      16.107913704902405      16.115839181935801                 10.3278
   303   1      16.107913704902405      16.115839181935801                14.43045
   304   2      16.108441079662828      5.3703611747750299                12.30396
   305   3      16.116633957983201      5.3722107003432722      5.2105499999999996
   306   2      16.116633957983201      5.3722107003432722      2.9496899999999999
   307   2      16.116633957983201      5.3722107003432722      7.0523499999999997
   308   2      16.116633957983201      16.116637671889965                 5.06358
   309   2       16.47651709423047      20.567080853916313                12.30396
   310   3      16.477044468990897      9.8216028467555407                12.45093
   311   2      16.477044468990897      9.8216028467555407                10.19007
   312   2      16.477044468990897      9.8216028467555407      14.292730000000001
   313   2      16.487131439760674     0.92624091901360728                 5.06358
   314   1      16.487131439760674      11.670667890560297      3.0874199999999998
   315   1      16.487131439760674      11.670667890560297      7.1900700000000004
   316   1      16.847233696506994      3.5231196591911713                 10.3278
   317   1      16.847233696506994      3.5231196591911713                14.43045
   318   2      16.847761071267417      14.266495595123779                12.30396
   319   3      16.857628921538144      17.969125080777324      5.2105499999999996
   320   2      16.857628921538144      17.969125080777324      2.9496899999999999
   321   2      16.857628921538144      17.969125080777324      7.0523499999999997
   322   2      16.857628921538147      7.2246981092306335                 5.06358
   323   3      17.217419210116329      18.714558162914702                12.45093
   324   2      17.217419210116329      18.714558162914702                10.19007
   325   2      17.217419210116329      18.714558162914702      14.292730000000001
   326   2      17.217946584876753       7.969080155753927                12.30396
   327   2      17.228126403315617      13.523155299447659                 5.06358
   328   1      17.228126403315617      2.7787283279009687      3.0874199999999998
   329   1      17.228126403315617      2.7787283279009687      7.1900700000000004
   330   2      17.588141383252996      1.6716610024773118                12.30396
   331   1      17.588663187153273      12.413972904122167                 10.3278
   332   1      17.588663187153273      12.413972904122167                14.43045
   333   3       17.59862388509309       9.077185518117993      5.2105499999999996
   334   2       17.59862388509309       9.077185518117993      2.9496899999999999
   335   2       17.59862388509309       9.077185518117993      7.0523499999999997
   336   2      17.598623885093087      19.821612489664684                 5.06358
   337   2      17.958321326002181      16.862035471913085                12.30396
   338   3      17.958857985529516       6.116553750845549                12.45093
   339   2      17.958857985529516       6.116553750845549                10.19007
   340   2      17.958857985529516       6.116553750845549      14.292730000000001
   341   2       17.96912136687056      4.6312157367883282                 5.06358
   342   1       17.96912136687056       15.37564270833502      3.0874199999999998
   343   1       17.96912136687056       15.37564270833502      7.1900700000000004
   344   1      18.329039785232087      21.307982969802172                 10.3278
   345   1      18.329039785232087      21.307982969802172                14.43045
   346   2      18.329567159992511      10.562504962641396                12.30396
   347   3      18.339618848648033     0.18524595545866326      5.2105499999999996
   348   2      18.339618848648033     0.18524595545866326      2.9496899999999999
   349   2      18.339618848648033     0.18524595545866326      7.0523499999999997
   350   2      18.339618848648033      10.929672927005353                 5.06358
   351   2      18.699760101415372      4.2640310598439344                12.30396
   352   3      18.700283762269031      15.007397711009636                12.45093
   353   2      18.700283762269031      15.007397711009636                10.19007
   354   2      18.700283762269031      15.007397711009636      14.292730000000001
   355   2      18.710116330425507      17.228130117222381                 5.06358
   356   1      18.710116330425507      6.4837031456756895      3.0874199999999998
   357   1      18.710116330425507      6.4837031456756895      7.1900700000000004
   358   2      19.069941901117943      19.455460278800555                12.30396