(written by ASE)

574 atoms
3 atom types

0.0      25.550893100380168  xlo xhi
0.0      25.550893100380168  ylo yhi
0.0      61.480760591600003  zlo zhi

Masses

     1       137.3269999646734 # Ba
     2      15.998999995884349 # O
     3      47.866999987686484 # Ti

Atoms # atomic

     1   2     0.15399357617264148      11.373087152404908                12.30396
     2   3     0.15408103347930016      24.148363246812856                12.45093
     3   2     0.15408103347930016      24.148363246812856                10.19007
     4   2     0.15408103347930016      24.148363246812856      14.292730000000001
     5   1      0.1557973831224545      1.4021764481020909      3.0874199999999998
     6   1      0.1557973831224545      1.4021764481020909      7.1900700000000004
     7   2     0.15579738312245514      14.177625895385738                 5.06358
     8   2     0.46557116330374249      8.5687248857750138                12.30396
     9   1      0.4656586206104017      21.344000980182962                 10.3278
    10   1      0.4656586206104017      21.344000980182962                14.43045
    11   2     0.46739371110498285       16.98199284722849                 5.06358
    12   3      0.4673937111049824      4.2065433999448425      5.2105499999999996
    13   2      0.4673937111049824      4.2065433999448425      2.9496899999999999
    14   2      0.4673937111049824      4.2065433999448425      7.0523499999999997
    15   2      0.7771471886972251      5.7643485635065481                12.30396
    16   3     0.77723308426626447      18.539802696003051                12.45093
    17   2     0.77723308426626447      18.539802696003051                10.19007
    18   2     0.77723308426626447      18.539802696003051      14.292730000000001
    19   1     0.77899003908751052      7.0109103517875937      3.0874199999999998
    20   1     0.77899003908751052      7.0109103517875937      7.1900700000000004
    21   2     0.77899003908751163      19.786359799071242                 5.06358
    22   2      1.0887247758283263      2.9599862968766533                12.30396
    23   1      1.0888169183478413      15.735432620685062                 10.3278
    24   1      1.0888169183478413      15.735432620685062                14.43045
    25   2      1.0905863670700386      22.590726750913991                 5.06358
    26   3      1.0905863670700386      9.8152773036303458      5.2105499999999996
    27   2      1.0905863670700386      9.8152773036303458      2.9496899999999999
    28   2      1.0905863670700386      9.8152773036303458      7.0523499999999997
    29   2      1.4003086099099031      0.1556162215586637                12.30396
    30   3      1.4003866967908478      12.931064107104691                12.45093
    31   2      1.4003866967908478      12.931064107104691                10.19007
    32   2      1.4003866967908478      12.931064107104691      14.292730000000001
    33   1      1.4021826950525664      12.619644255473098      3.0874199999999998
    34   1      1.4021826950525664      12.619644255473098      7.1900700000000004
    35   2      1.4021826950525664      25.395093702756743                 5.06358
    36   1      1.7119705308724238      10.126694031786702                 10.3278
    37   1      1.7119705308724238      10.126694031786702                14.43045
    38   2      1.7120517412286063      22.901977934882744                12.30396
    39   2      1.7137790230350944      2.6485617600322029                 5.06358
    40   3      1.7137790230350951      15.424011207315848      5.2105499999999996
    41   2      1.7137790230350951      15.424011207315848      2.9496899999999999
    42   2      1.7137790230350951      15.424011207315848      7.0523499999999997
    43   3      2.0235403093154316      7.3223255182063314                12.45093
    44   2      2.0235403093154316      7.3223255182063314                10.19007
    45   2      2.0235403093154316      7.3223255182063314      14.292730000000001
    46   2       2.023632451834946       20.09777184201474                12.30396
    47   1      2.0253753510176229      18.228378159158602      3.0874199999999998
    48   1      2.0253753510176229      18.228378159158602      7.1900700000000004
    49   2       2.025375351017622      5.4529287118749545                 5.06358
    50   1       2.335124143397008      4.5179554428883417                 10.3278
    51   1       2.335124143397008      4.5179554428883417                14.43045
    52   2      2.3352022302779534      17.293403328434369                12.30396
    53   2      2.3369716790001505      8.2572956637177057                 5.06358
    54   3        2.33697167900015      21.032745111001351      5.2105499999999996
    55   2        2.33697167900015      21.032745111001351      2.9496899999999999
    56   2        2.33697167900015      21.032745111001351      7.0523499999999997
    57   3      2.6467017305281093      1.7135931762584469                12.45093
    58   2      2.6467017305281093      1.7135931762584469                10.19007
    59   2      2.6467017305281093      1.7135931762584469      14.292730000000001
    60   2      2.6467860643595285       14.48903325311638                12.30396
    61   1      2.6485680069826789      23.837112062844103      3.0874199999999998
    62   1      2.6485680069826789      23.837112062844103      7.1900700000000004
    63   2      2.6485680069826789      11.061662615560458                 5.06358
    64   1      2.9582777559215923      24.460115748557275                 10.3278
    65   1      2.9582777559215923      24.460115748557275                14.43045
    66   2      2.9583636514906315      11.684670986486484                12.30396
    67   2      2.9601643349652065       13.86602956740321                 5.06358
    68   3      2.9601580880147305      1.0905879288076574      5.2105499999999996
    69   2      2.9601580880147305      1.0905879288076574      2.9496899999999999
    70   2      2.9601580880147305      1.0905879288076574      7.0523499999999997
    71   2      3.2699396768841131      8.8802946642180203                12.30396
    72   3      3.2700255724531524      21.655748796714523                12.45093
    73   2      3.2700255724531524      21.655748796714523                10.19007
    74   2      3.2700255724531524      21.655748796714523      14.292730000000001
    75   1       3.271760662947734      3.8949470719623145      3.0874199999999998
    76   1       3.271760662947734      3.8949470719623145      7.1900700000000004
    77   2      3.2717606629477354      16.670396519245962                 5.06358
    78   2      3.5815172640152135       6.075932397588125                12.30396
    79   1      3.5816015978466331      18.851372474446059                 10.3278
    80   1      3.5816015978466331      18.851372474446059                14.43045
    81   2      3.5833569909302612      19.474763471088711                 5.06358
    82   3      3.5833569909302621      6.6993140238050666      5.2105499999999996
    83   2      3.5833569909302621      6.6993140238050666      2.9496899999999999
    84   2      3.5833569909302621      6.6993140238050666      7.0523499999999997
    85   2      3.8930948511463157      3.2715701309582297                12.30396
    86   3      3.8931791849777362      16.047010207816164                12.45093
    87   2      3.8931791849777362      16.047010207816164                10.19007
    88   2      3.8931791849777362      16.047010207816164      14.292730000000001
    89   1      3.8949533189127905      9.5036809756478178      3.0874199999999998
    90   1      3.8949533189127905      9.5036809756478178      7.1900700000000004
    91   2      3.8949533189127901      22.279130422931463                 5.06358
    92   2      4.2046708765397982     0.46719380868976473                12.30396
    93   1       4.204756772108837      13.242647941186268                 10.3278
    94   1       4.204756772108837      13.242647941186268                14.43045
    95   2      4.2065496468953185      25.083497374774215                 5.06358
    96   3      4.2065496468953185      12.308047927490568      5.2105499999999996
    97   2      4.2065496468953185      12.308047927490568      2.9496899999999999
    98   2      4.2065496468953185      12.308047927490568      7.0523499999999997
    99   2      4.5162469019332807      23.213716380988593                12.30396
   100   3      4.5163327975023195      10.438271618917803                12.45093
   101   2      4.5163327975023195      10.438271618917803                10.19007
   102   2      4.5163327975023195      10.438271618917803      14.292730000000001
   103   1      4.5181459748778465      15.112414879333322      3.0874199999999998
   104   1      4.5181459748778465      15.112414879333322      7.1900700000000004
   105   2      4.5181397279273705      2.3369732407377688                 5.06358
   106   1      4.8279103846334213      7.6339093522879091                 10.3278
   107   1      4.8279103846334213      7.6339093522879091                14.43045
   108   2        4.82799471846484      20.409349429145841                12.30396
   109   2      4.8297423028603736      5.1413323838924265                 5.06358
   110   3      4.8297423028603736       17.91678183117607      5.2105499999999996
   111   2      4.8297423028603736       17.91678183117607      2.9496899999999999
   112   2      4.8297423028603736       17.91678183117607      7.0523499999999997
   113   3      5.1394864100269029      4.8295330300194435                12.45093
   114   2      5.1394864100269029      4.8295330300194435                10.19007
   115   2      5.1394864100269029      4.8295330300194435      14.292730000000001
   116   2      5.1395723055959417      17.604987162515947                12.30396
   117   1      5.1413386308429008      20.721148783018823      3.0874199999999998
   118   1      5.1413386308429008      20.721148783018823      7.1900700000000004
   119   2      5.1413386308429017      7.9456993357351786                 5.06358
   120   1      5.4510639971580046      2.0251707633895482                 10.3278
   121   1      5.4510639971580046      2.0251707633895482                14.43045
   122   2      5.4511561396775186      14.800617087197956                12.30396
   123   2      5.4529349588254306       10.75006628757793                 5.06358
   124   3      5.4529349588254297      23.525515734861575      5.2105499999999996
   125   2      5.4529349588254297      23.525515734861575      2.9496899999999999
   126   2      5.4529349588254297      23.525515734861575      7.0523499999999997
   127   3      5.7626400225514889      24.771693335688376                12.45093
   128   2      5.7626400225514889      24.771693335688376                10.19007
   129   2      5.7626400225514889      24.771693335688376      14.292730000000001
   130   2      5.7627259181205259      11.996248573617587                12.30396
   131   1      5.7645250398574825     0.77899160082512897      3.0874199999999998
   132   1      5.7645250398574825     0.77899160082512897      7.1900700000000004
   133   2      5.7645312868079586      13.554433239420682                 5.06358
   134   1      6.0742238566330631      21.967323260370385                 10.3278
   135   1      6.0742238566330631      21.967323260370385                14.43045
   136   2      6.0743097522021028      9.1918784982995962                12.30396
   137   2      6.0761276147904848      16.358800191263434                 5.06358
   138   3      6.0761213678400106      3.5833585526678808      5.2105499999999996
   139   2      6.0761213678400106      3.5833585526678808      2.9496899999999999
   140   2      6.0761213678400106      3.5833585526678808      7.0523499999999997
   141   2      6.3858795306451093      6.3875099847192258                12.30396
   142   3      6.3859716731646232      19.162956308527633                12.45093
   143   2      6.3859716731646232      19.162956308527633                10.19007
   144   2      6.3859716731646232      19.162956308527633      14.292730000000001
   145   1      6.3877239427730137      6.3877176958225386      3.0874199999999998
   146   1      6.3877239427730137      6.3877176958225386      7.1900700000000004
   147   2      6.3877239427730137      19.163167143106183                 5.06358
   148   2      6.6974633647266861      3.5831399094012366                12.30396
   149   1      6.6975414516076306      16.358587794947265                 10.3278
   150   1      6.6975414516076306      16.358587794947265                14.43045
   151   2      6.6993202707555408      21.967534094948935                 5.06358
   152   3      6.6993202707555417      9.1920846476652898      5.2105499999999996
   153   2      6.6993202707555417      9.1920846476652898      2.9496899999999999
   154   2      6.6993202707555417      9.1920846476652898      7.0523499999999997
   155   2       7.009040951857787     0.77877764277134187                12.30396
   156   3      7.0091252856892083      13.554217719629275                12.45093
   157   2      7.0091252856892083      13.554217719629275                10.19007
   158   2      7.0091252856892083      13.554217719629275      14.292730000000001
   159   1      7.0109165987380706      11.996451599508042      3.0874199999999998
   160   1      7.0109165987380706      11.996451599508042      7.1900700000000004
   161   2      7.0109165987380715      24.771901046791687                 5.06358
   162   2      7.3206169772512695      23.525300215070168                12.30396
   163   1      7.3207028728203083      10.749855452999379                 10.3278
   164   1      7.3207028728203083      10.749855452999379                14.43045
   165   2      7.3225066797701226      2.0253769127552412                 5.06358
   166   3      7.3225129267205968      14.800818551350792      5.2105499999999996
   167   2      7.3225129267205968      14.800818551350792      2.9496899999999999
   168   2      7.3225129267205968      14.800818551350792      7.0523499999999997
   169   3      7.6322788982137926      7.9454791307309147                12.45093
   170   2      7.6322788982137926      7.9454791307309147                10.19007
   171   2      7.6322788982137926      7.9454791307309147      14.292730000000001
   172   2      7.6323647937828314      20.720933263227419                12.30396
   173   1      7.6341092547031248      17.605185503193546      3.0874199999999998
   174   1      7.6341092547031248      17.605185503193546      7.1900700000000004
   175   2      7.6341030077526506      4.8297438645979929                 5.06358
   176   1      7.9438564853448925      5.1411168641010194                 10.3278
   177   1      7.9438564853448925      5.1411168641010194                14.43045
   178   2       7.943940819176313      17.916556940958952                12.30396
   179   2      7.9457055826856537      7.6341030077526497                 5.06358
   180   3      7.9457055826856537      20.409552455036295      5.2105499999999996
   181   2      7.9457055826856537      20.409552455036295      2.9496899999999999
   182   2      7.9457055826856537      20.409552455036295      7.0523499999999997
   183   3      8.2554403194264694      2.3367467887830307                12.45093
   184   2      8.2554403194264694      2.3367467887830307                10.19007
   185   2      8.2554403194264694      2.3367467887830307      14.292730000000001
   186   2      8.2555184063074147      15.112194674329059                12.30396
   187   1      8.2573019106681826      23.213919406879047      3.0874199999999998
   188   1      8.2573019106681826      23.213919406879047      7.1900700000000004
   189   2      8.2573019106681826      10.438469959595402                 5.06358
   190   1      8.5670163448199528      25.083269361081861                 10.3278
   191   1      8.5670163448199528      25.083269361081861                14.43045
   192   2      8.5671022403889925      12.307824599011068                12.30396
   193   2      8.5688982386507089      13.242836911438152                 5.06358
   194   3      8.5688919917002337     0.46739527284260157      5.2105499999999996
   195   2      8.5688919917002337     0.46739527284260157      2.9496899999999999
   196   2      8.5688919917002337     0.46739527284260157      7.0523499999999997
   197   2      8.8786720188319972      9.5034560854306989                12.30396
   198   3      8.8787641613515138      22.278902409239105                12.45093
   199   2      8.8787641613515138      22.278902409239105                10.19007
   200   2      8.8787641613515138      22.278902409239105      14.292730000000001
   201   1      8.8804883196827618      3.2717622246853533      3.0874199999999998
   202   1      8.8804883196827618      3.2717622246853533      7.1900700000000004
   203   2      8.8804945666332369      16.047203863280902                 5.06358
   204   2      9.1902558529135749      6.6990860101127074                12.30396
   205   1      9.1903339397945185      19.474533895658734                 10.3278
   206   1      9.1903339397945185      19.474533895658734                14.43045
   207   2      9.1920908946157649      18.851570815123658                 5.06358
   208   3      9.1920846476652898       6.076129176528104      5.2105499999999996
   209   2      9.1920846476652898       6.076129176528104      2.9496899999999999
   210   2      9.1920846476652898       6.076129176528104      7.0523499999999997
   211   2      9.5018256313565814      3.8947174965323379                12.30396
   212   3      9.5019177738760963      16.670163820340747                12.45093
   213   2      9.5019177738760963      16.670163820340747                10.19007
   214   2      9.5019177738760963      16.670163820340747      14.292730000000001
   215   1      9.5036872225982947      8.8804883196827618      3.0874199999999998
   216   1      9.5036872225982947      8.8804883196827618      7.1900700000000004
   217   2      9.5036872225982947      21.655937766966407                 5.06358
   218   2      9.8134094654381574      1.0903474212143482                12.30396
   219   1      9.8134953610071989      13.865801553710853                 10.3278
   220   1      9.8134953610071989      13.865801553710853                14.43045
   221   2      9.8152835505808227      24.460304718809159                 5.06358
   222   3      9.8152835505808209      11.684855271525512      5.2105499999999996
   223   2      9.8152835505808209      11.684855271525512      2.9496899999999999
   224   2      9.8152835505808209      11.684855271525512      7.0523499999999997
   225   3      10.125071386400679      11.061425231442387                12.45093
   226   2      10.125071386400679      11.061425231442387                10.19007
   227   2      10.125071386400679      11.061425231442387      14.292730000000001
   228   2      10.125157281969717      23.836879363938888                12.30396
   229   1      10.126879878563349      14.489222223368264      3.0874199999999998
   230   1      10.126879878563349      14.489222223368264      7.1900700000000004
   231   2      10.126873631612874      1.7137805847727137                 5.06358
   232   1      10.436648973531781      8.2570629648124925                 10.3278
   233   1      10.436648973531781      8.2570629648124925                14.43045
   234   2      10.436733307363202      21.032503041670427                12.30396
   235   2      10.438469959595402       4.518147536615464                 5.06358
   236   3      10.438476206545877      17.293589175211014      5.2105499999999996
   237   2      10.438476206545877      17.293589175211014      2.9496899999999999
   238   2      10.438476206545877      17.293589175211014      7.0523499999999997
   239   3      10.748224998925263      5.4526866425440268                12.45093
   240   2      10.748224998925263      5.4526866425440268                10.19007
   241   2      10.748224998925263      5.4526866425440268      14.292730000000001
   242   2      10.748310894494301      18.228140775040529                12.30396
   243   1      10.750072534528407       20.09795612705377      3.0874199999999998
   244   1      10.750072534528407       20.09795612705377      7.1900700000000004
   245   2       10.75006628757793       7.322514488458217                 5.06358
   246   1      11.059802586056364      2.6483243759141311                 10.3278
   247   1      11.059802586056364      2.6483243759141311                14.43045
   248   2      11.059894728575879      15.423770699722541                12.30396
   249   2      11.061668862510933      10.126873631612872                 5.06358
   250   3      11.061668862510935      22.902323078896519      5.2105499999999996
   251   2      11.061668862510935      22.902323078896519      2.9496899999999999
   252   2      11.061668862510935      22.902323078896519      7.0523499999999997
   253   2      11.371464507018883      12.619402186142167                12.30396
   254   3      11.371556649538398      25.394848509950577                12.45093
   255   2      11.371556649538398      25.394848509950577                10.19007
   256   2      11.371556649538398      25.394848509950577      14.292730000000001
   257   1      11.373258943542986     0.15579894486007378      3.0874199999999998
   258   1      11.373258943542986     0.15579894486007378      7.1900700000000004
   259   2      11.373265190493461      12.931240583455624                 5.06358
   260   2      11.683048341100463      9.8150321108241805                12.30396
   261   1      11.683126427981408      22.590479996370206                 10.3278
   262   1      11.683126427981408      22.590479996370206                14.43045
   263   2      11.684861518475989      15.735607535298376                 5.06358
   264   3      11.684855271525514      2.9601658967028248      5.2105499999999996
   265   2      11.684855271525514      2.9601658967028248      2.9496899999999999
   266   2      11.684855271525514      2.9601658967028248      7.0523499999999997
   267   2      11.994618119543468      7.0106635972438092                12.30396
   268   3      11.994710262062981      19.786109921052219                12.45093
   269   2      11.994710262062981      19.786109921052219                10.19007
   270   2      11.994710262062981      19.786109921052219      14.292730000000001
   271   1      11.996451599508042      5.7645328485455769      3.0874199999999998
   272   1      11.996451599508042      5.7645328485455769      7.1900700000000004
   273   2      11.996457846458519      18.539974487141127                 5.06358
   274   2      12.306201953625047      4.2062935219258204                12.30396
   275   1      12.306280040505991      16.981741407471848                 10.3278
   276   1      12.306280040505991      16.981741407471848                14.43045
   277   2      12.308054174441047      21.344341438983882                 5.06358
   278   3      12.308047927490568      8.5688998003883281      5.2105499999999996
   279   2      12.308047927490568      8.5688998003883281      2.9496899999999999
   280   2      12.308047927490568      8.5688998003883281      7.0523499999999997
   281   3      12.617863874587568      14.177371332153859                12.45093
   282   2      12.617863874587568      14.177371332153859                10.19007
   283   2      12.617863874587568      14.177371332153859      14.292730000000001
   284   2      12.617949770156606       1.401926570083069                12.30396
   285   1      12.619650502423573      11.373258943542984      3.0874199999999998
   286   1      12.619650502423573      11.373258943542984      7.1900700000000004
   287   2      12.619650502423571      24.148708390826631                 5.06358
   288   1      12.929441461718667      11.373009065523961                 10.3278
   289   1      12.929441461718667      11.373009065523961                14.43045
   290   2       12.92952579555009      24.148449142381896                12.30396
   291   2      12.931240583455626       1.402184256790185                 5.06358
   292   3      12.931246830406101      14.177625895385736      5.2105499999999996
   293   2      12.931246830406101      14.177625895385736      2.9496899999999999
   294   2      12.931246830406101      14.177625895385736      7.0523499999999997
   295   3      13.241017487112153       8.568632743255499                12.45093
   296   2      13.241017487112153       8.568632743255499                10.19007
   297   2      13.241017487112153       8.568632743255499      14.292730000000001
   298   2      13.241103382681192      21.344086875752001                12.30396
   299   1      13.242843158388631       16.98199284722849      3.0874199999999998
   300   1      13.242843158388631       16.98199284722849      7.1900700000000004
   301   2      13.242836911438154      4.2065512086329377                 5.06358
   302   1      13.552595074243252      5.7642704766256028                 10.3278
   303   1      13.552595074243252      5.7642704766256028                14.43045
   304   2      13.552679408074672      18.539710553483538                12.30396
   305   2       13.55443323942068      7.0109181604756872                 5.06358
   306   3      13.554439486371159      19.786359799071239      5.2105499999999996
   307   2      13.554439486371159      19.786359799071239      2.9496899999999999
   308   2      13.554439486371159      19.786359799071239      7.0523499999999997
   309   2      13.864256995205773      15.735348286853641                12.30396
   310   3      13.864342890774811       2.959903524782852                12.45093
   311   2      13.864342890774811       2.959903524782852                10.19007
   312   2      13.864342890774811       2.959903524782852      14.292730000000001
   313   1      13.866035814353683      22.590726750913991      3.0874199999999998
   314   1      13.866035814353683      22.590726750913991      7.1900700000000004
   315   2      13.866029567403208      9.8152851123184401                 5.06358
   316   2      14.175840829287351      12.930978211535653                12.30396
   317   1      14.175918916168294     0.15552720251438662                 10.3278
   318   1      14.175918916168294     0.15552720251438662                14.43045
   319   2      14.177632142336213      12.619644255473096                 5.06358
   320   3      14.177632142336211      25.395093702756743      5.2105499999999996
   321   2      14.177632142336211      25.395093702756743      2.9496899999999999
   322   2      14.177632142336211      25.395093702756743      7.0523499999999997
   323   2      14.487410607730357       10.12660969795528                12.30396
   324   3      14.487502750249874      22.902056021763691                12.45093
   325   2      14.487502750249874      22.902056021763691                10.19007
   326   2      14.487502750249874      22.902056021763691      14.292730000000001
   327   1      14.489222223368266      2.6485695687202977      3.0874199999999998
   328   1      14.489222223368266      2.6485695687202977      7.1900700000000004
   329   2      14.489228470318743      15.424011207315848                 5.06358
   330   2      14.798994441811933      7.3222396226372926                12.30396
   331   1      14.799072528692879       20.09768750818332                 10.3278
   332   1      14.799072528692879       20.09768750818332                14.43045
   333   2      14.800824798301271      18.228378159158602                 5.06358
   334   3      14.800818551350792       5.452936520563048      5.2105499999999996
   335   2      14.800818551350792       5.452936520563048      2.9496899999999999
   336   2      14.800818551350792       5.452936520563048      7.0523499999999997
   337   3      15.110656362774456      17.293317432865329                12.45093
   338   2      15.110656362774456      17.293317432865329                10.19007
   339   2      15.110656362774456      17.293317432865329      14.292730000000001
   340   2      15.110742258343494      4.5178726707945405                12.30396
   341   1       15.11241487933332      8.2573034724058001      3.0874199999999998
   342   1       15.11241487933332      8.2573034724058001      7.1900700000000004
   343   2      15.112421126283795      21.032745111001351                 5.06358
   344   1      15.422233949905557      14.488955166235437                 10.3278
   345   1      15.422233949905557      14.488955166235437                14.43045
   346   2      15.422312036786501      1.7135041572141696                12.30396
   347   2      15.424017454266323      23.837112062844103                 5.06358
   348   3      15.424011207315848      11.061670424248552      5.2105499999999996
   349   2      15.424011207315848      11.061670424248552      2.9496899999999999
   350   2      15.424011207315848      11.061670424248552      7.0523499999999997
   351   3      15.733809975299039      11.684578843966969                12.45093
   352   2      15.733809975299039      11.684578843966969                10.19007
   353   2      15.733809975299039      11.684578843966969      14.292730000000001
   354   2      15.733895870868075      24.460032976463474                12.30396
   355   1      15.735613782248855      13.866029567403208      3.0874199999999998
   356   1      15.735613782248855      13.866029567403208      7.1900700000000004
   357   2      15.735607535298378      1.0905879288076574                 5.06358
   358   1       16.04538756243014      8.8802165773370767                 10.3278