(written by ASE)

910 atoms
3 atom types

0.0      32.171464778118526  xlo xhi
0.0      32.171464778118526  ylo yhi
0.0      61.480760591600003  zlo zhi

Masses

     1       137.3269999646734 # Ba
     2      15.998999995884349 # O
     3      47.866999987686484 # Ti

Atoms # atomic

     1   3     0.12358572884999565      9.0327005503351359                12.45093
     2   2     0.12358572884999565      9.0327005503351359                10.19007
     3   2     0.12358572884999565      9.0327005503351359      14.292730000000001
     4   2     0.12359689197610854      25.118508527308986                12.30396
     5   2     0.12373208983681072      23.138707025258455                 5.06358
     6   1     0.12373208983681078      7.0529709884306655      3.0874199999999998
     7   1     0.12373208983681078      7.0529709884306655      7.1900700000000004
     8   2     0.37105486991300074      11.012483447175478                12.30396
     9   1     0.37106603303911406      27.098291424149327                 10.3278
    10   1     0.37106603303911406      27.098291424149327                14.43045
    11   3     0.37120495194185371      21.158924128418111      5.2105499999999996
    12   2     0.37120495194185371      21.158924128418111      2.9496899999999999
    13   2     0.37120495194185371      21.158924128418111      7.0523499999999997
    14   2     0.37120495194185366       5.073188091590322                 5.06358
    15   3     0.61852649167069751      12.992246498458288                12.45093
    16   2     0.61852649167069751      12.992246498458288                10.19007
    17   2     0.61852649167069751      12.992246498458288      14.292730000000001
    18   2     0.61853765479681078      29.078054475432133                12.30396
    19   2      0.6186778140468967      19.179141231577766                 5.06358
    20   1     0.61867781404689648      3.0934051947499794      3.0874199999999998
    21   1     0.61867781404689648      3.0934051947499794      7.1900700000000004
    22   2     0.86599563273370284       14.97202939529863                12.30396
    23   1     0.86600679585981588      31.057837372272477                 10.3278
    24   1     0.86600679585981588      31.057837372272477                14.43045
    25   3     0.86615067615193964      17.199358334737422      5.2105499999999996
    26   2     0.86615067615193964      17.199358334737422      2.9496899999999999
    27   2     0.86615067615193964      17.199358334737422      7.0523499999999997
    28   2     0.86615067615193941      1.1136222979096364                 5.06358
    29   3      1.1134672544913997       16.95179244658144                12.45093
    30   2      1.1134672544913997       16.95179244658144                10.19007
    31   2      1.1134672544913997       16.95179244658144      14.292730000000001
    32   2       1.113477177270167     0.86613827267848054                12.30396
    33   2      1.1136235382569823      15.219575437897079                 5.06358
    34   1      1.1136235382569823      31.305311474724864      3.0874199999999998
    35   1      1.1136235382569823      31.305311474724864      7.1900700000000004
    36   2      1.3609463183331725      18.931576583769125                12.30396
    37   1      1.3609562411119396      2.8459224098661693                 10.3278
    38   1      1.3609562411119396      2.8459224098661693                14.43045
    39   3      1.3610964003620252      13.239792541056739      5.2105499999999996
    40   2      1.3610964003620252      13.239792541056739      2.9496899999999999
    41   2      1.3610964003620252      13.239792541056739      7.0523499999999997
    42   2      1.3610964003620247      29.325528577884523                 5.06358
    43   3      1.6084179400908691      20.911339635051938                12.45093
    44   2      1.6084179400908691      20.911339635051938                10.19007
    45   2      1.6084179400908691      20.911339635051938      14.292730000000001
    46   2      1.6084278628696362      4.8256854611489777                12.30396
    47   2      1.6085692624670682      11.260009644216394                 5.06358
    48   1      1.6085692624670678      27.345745681044182      3.0874199999999998
    49   1      1.6085692624670678      27.345745681044182      7.1900700000000004
    50   2      1.8558870811538746      22.891122531892279                12.30396
    51   1      1.8558970039326417      6.8054683579893203                 10.3278
    52   1      1.8558970039326417      6.8054683579893203                14.43045
    53   3       1.856042124572111      9.2802267473760516      5.2105499999999996
    54   2       1.856042124572111      9.2802267473760516      2.9496899999999999
    55   2       1.856042124572111      9.2802267473760516      7.0523499999999997
    56   2      1.8560421245721108      25.365962784203838                 5.06358
    57   2      2.1033686256903388      8.7852314092721304                12.30396
    58   3      2.1033797888164516      24.871039386245979                12.45093
    59   2      2.1033797888164516      24.871039386245979                10.19007
    60   2      2.1033797888164516      24.871039386245979      14.292730000000001
    61   2      2.1035149866771539      7.3004438505357081                 5.06358
    62   1      2.1035149866771534      23.386179887363497      3.0874199999999998
    63   1      2.1035149866771534      23.386179887363497      7.1900700000000004
    64   1      2.3508377667533438      10.765014306112473                 10.3278
    65   1      2.3508377667533438      10.765014306112473                14.43045
    66   2      2.3508489298794566      26.850822283086323                12.30396
    67   3      2.3509878487821969      5.3206609536953646      5.2105499999999996
    68   2      2.3509878487821969      5.3206609536953646      2.9496899999999999
    69   2      2.3509878487821969      5.3206609536953646      7.0523499999999997
    70   2      2.3509878487821965      21.406396990523152                 5.06358
    71   2      2.5983093885110407      12.744777357395282                12.30396
    72   3      2.5983205516371539      28.830585334369129                12.45093
    73   2      2.5983205516371539      28.830585334369129                10.19007
    74   2      2.5983205516371539      28.830585334369129      14.292730000000001
    75   2      2.5984607108872395      3.3408780568550225                 5.06358
    76   1      2.5984607108872391      19.426614093682808      3.0874199999999998
    77   1      2.5984607108872391      19.426614093682808      7.1900700000000004
    78   1      2.8457785295740456      14.724560254235625                 10.3278
    79   1      2.8457785295740456      14.724560254235625                14.43045
    80   2       2.845789692700158      30.810368231209473                12.30396
    81   3      2.8459335729922826      1.3610951600146792      5.2105499999999996
    82   2      2.8459335729922826      1.3610951600146792      2.9496899999999999
    83   2      2.8459335729922826      1.3610951600146792      7.0523499999999997
    84   2      2.8459335729922821      17.446831196842464                 5.06358
    85   2       3.093250151331743      16.704323305518432                12.30396
    86   3      3.0932600741105101     0.61866913161547532                12.45093
    87   2      3.0932600741105101     0.61866913161547532                10.19007
    88   2      3.0932600741105101     0.61866913161547532      14.292730000000001
    89   2      3.0934064350973247      31.552784336829909                 5.06358
    90   1      3.0934064350973252      15.467048300002123      3.0874199999999998
    91   1      3.0934064350973252      15.467048300002123      7.1900700000000004
    92   1      3.3407292151735155      18.684107442706122                 10.3278
    93   1      3.3407292151735155      18.684107442706122                14.43045
    94   2      3.3407292151735155      2.5984520284558181                12.30396
    95   3      3.3408792972023673      29.573001439989568      5.2105499999999996
    96   2      3.3408792972023673      29.573001439989568      2.9496899999999999
    97   2      3.3408792972023673      29.573001439989568      7.0523499999999997
    98   2      3.3408792972023678       13.48726540316178                 5.06358
    99   2      3.5882008369312119      20.663870493988931                12.30396
   100   3      3.5882008369312124      4.5782150797386274                12.45093
   101   2      3.5882008369312124      4.5782150797386274                10.19007
   102   2      3.5882008369312124      4.5782150797386274      14.292730000000001
   103   2      3.5883521593074104      27.593218543149224                 5.06358
   104   1      3.5883521593074108      11.507482506321436      3.0874199999999998
   105   1      3.5883521593074108      11.507482506321436      7.1900700000000004
   106   1      3.8356699779942169      22.643653390829275                 10.3278
   107   1      3.8356699779942169      22.643653390829275                14.43045
   108   2      3.8356799007729845      6.5579992169263157                12.30396
   109   3      3.8358250214124534      25.613435646308879      5.2105499999999996
   110   2      3.8358250214124534      25.613435646308879      2.9496899999999999
   111   2      3.8358250214124534      25.613435646308879      7.0523499999999997
   112   2      3.8358250214124534      9.5276996094810951                 5.06358
   113   2      4.0831415997519143      24.623416442112081                12.30396
   114   3      4.0831515225306818       8.537762268209125                12.45093
   115   2      4.0831515225306818       8.537762268209125                10.19007
   116   2      4.0831515225306818       8.537762268209125      14.292730000000001
   117   2      4.0832978835174956      23.633652749468538                 5.06358
   118   1      4.0832978835174965      7.5479167126407507      3.0874199999999998
   119   1      4.0832978835174965      7.5479167126407507      7.1900700000000004
   120   1      4.3306107408149197      26.603199338952425                 10.3278
   121   1      4.3306107408149197      26.603199338952425                14.43045
   122   2      4.3306206635936872      10.517545165049468                12.30396
   123   3      4.3307707456225391      21.653869852628194      5.2105499999999996
   124   2      4.3307707456225391      21.653869852628194      2.9496899999999999
   125   2      4.3307707456225391      21.653869852628194      7.0523499999999997
   126   2      4.3307707456225391      5.5681338158004081                 5.06358
   127   3      4.5780922853513841      12.497308216332277                12.45093
   128   2      4.5780922853513841      12.497308216332277                10.19007
   129   2      4.5780922853513841      12.497308216332277      14.292730000000001
   130   2      4.5781034484774974      28.583116193306125                12.30396
   131   2      4.5782436077275817       19.67408695578785                 5.06358
   132   1      4.5782436077275825      3.5883509189600651      3.0874199999999998
   133   1      4.5782436077275825      3.5883509189600651      7.1900700000000004
   134   2      4.8255614264143896      14.477091113172619                12.30396
   135   1      4.8255725895405019      30.562899090146466                 10.3278
   136   1      4.8255725895405019      30.562899090146466                14.43045
   137   3      4.8257164698326251      17.694304058947509      5.2105499999999996
   138   2      4.8257164698326251      17.694304058947509      2.9496899999999999
   139   2      4.8257164698326251      17.694304058947509      7.0523499999999997
   140   2      4.8257164698326251      1.6085680221197221                 5.06358
   141   3      5.0730330481720856      16.456854164455429                12.45093
   142   2      5.0730330481720856      16.456854164455429                10.19007
   143   2      5.0730330481720856      16.456854164455429      14.292730000000001
   144   2      5.0730442112981988     0.37119006777370295                12.30396
   145   2      5.0731893319376677      15.714521162107166                 5.06358
   146   1      5.0731893319376686      31.800257198934951      3.0874199999999998
   147   1      5.0731893319376686      31.800257198934951      7.1900700000000004
   148   2      5.3205121120138577      18.436638301643118                12.30396
   149   1      5.3205133523612052       2.350972964614046                 10.3278
   150   1      5.3205133523612052       2.350972964614046                14.43045
   151   3      5.3206621940427103      13.734738265266824      5.2105499999999996
   152   2      5.3206621940427103      13.734738265266824      2.9496899999999999
   153   2      5.3206621940427103      13.734738265266824      7.0523499999999997
   154   2      5.3206621940427112       29.82047430209461                 5.06358
   155   3      5.5679837337715554      20.416401352925927                12.45093
   156   2      5.5679837337715554      20.416401352925927                10.19007
   157   2      5.5679837337715554      20.416401352925927      14.292730000000001
   158   2      5.5679849741189011      4.3307360158968544                12.30396
   159   2      5.5681350561477529      11.754955368426479                 5.06358
   160   1      5.5681350561477538      27.840691405254265      3.0874199999999998
   161   1      5.5681350561477538      27.840691405254265      7.1900700000000004
   162   2      5.8154528748345609      22.396184249766268                12.30396
   163   1      5.8154640379606741      6.3105201530845436                 10.3278
   164   1      5.8154640379606741      6.3105201530845436                14.43045
   165   3      5.8156079182527964      9.7751724715861368      5.2105499999999996
   166   2      5.8156079182527964      9.7751724715861368      2.9496899999999999
   167   2      5.8156079182527964      9.7751724715861368      7.0523499999999997
   168   2      5.8156079182527964      25.860908508413921                 5.06358
   169   3      6.0629244965922569      24.375947301049077                12.45093
   170   2      6.0629244965922569      24.375947301049077                10.19007
   171   2      6.0629244965922569      24.375947301049077      14.292730000000001
   172   2       6.062935659718371       8.290283204367352                12.30396
   173   2       6.063080780357839      7.7953895747457933                 5.06358
   174   1       6.063080780357839      23.881125611573584      3.0874199999999998
   175   1       6.063080780357839      23.881125611573584      7.1900700000000004
   176   2      6.3103936376552632      26.355730197889418                12.30396
   177   1      6.3104048007813756      10.270066101207695                 10.3278
   178   1      6.3104048007813756      10.270066101207695                14.43045
   179   3      6.3105536424628816      5.8156066779054507      5.2105499999999996
   180   2      6.3105536424628816      5.8156066779054507      2.9496899999999999
   181   2      6.3105536424628816      5.8156066779054507      7.0523499999999997
   182   2      6.3105536424628825      21.901342714733239                 5.06358
   183   2      6.5578751821917276       12.24983907526927                12.30396
   184   3      6.5578875856651866      28.335637129464352                12.45093
   185   2      6.5578875856651866      28.335637129464352                10.19007
   186   2      6.5578875856651866      28.335637129464352      14.292730000000001
   187   2      6.5580265045679251      3.8358237810651081                 5.06358
   188   1      6.5580265045679251      19.921559817892895      3.0874199999999998
   189   1      6.5580265045679251      19.921559817892895      7.1900700000000004
   190   1      6.8053455636020797      14.229612049330846                 10.3278
   191   1      6.8053455636020797      14.229612049330846                14.43045
   192   2      6.8053567267281894      30.315420026304697                12.30396
   193   3      6.8054993666729677      1.8560408842247649      5.2105499999999996
   194   2      6.8054993666729677      1.8560408842247649      2.9496899999999999
   195   2      6.8054993666729677      1.8560408842247649      7.0523499999999997
   196   2      6.8054993666729686      17.941776921052551                 5.06358
   197   2      7.0528159450124281      16.209385023392421                12.30396
   198   3      7.0528271081385414     0.12372092671069772                12.45093
   199   2      7.0528271081385414     0.12372092671069772                10.19007
   200   2      7.0528271081385414     0.12372092671069772      14.292730000000001
   201   2      7.0529722287780112      32.047730061039992                 5.06358
   202   1      7.0529722287780112      15.961994024212208      3.0874199999999998
   203   1      7.0529722287780112      15.961994024212208      7.1900700000000004
   204   1      7.3002850860754336      18.189167920232766                 10.3278
   205   1      7.3002850860754336      18.189167920232766                14.43045
   206   2      7.3002962492015468      2.1035038235510406                12.30396
   207   3      7.3004450908830538      30.067947164199651      5.2105499999999996
   208   2      7.3004450908830538      30.067947164199651      2.9496899999999999
   209   2      7.3004450908830538      30.067947164199651      7.0523499999999997
   210   2      7.3004450908830538      13.982211127371867                 5.06358
   211   2      7.5477666306118971      20.168932211862924                12.30396
   212   3      7.5477678709592437       4.083266874833849                12.45093
   213   2      7.5477678709592437       4.083266874833849                10.19007
   214   2      7.5477678709592437       4.083266874833849      14.292730000000001
   215   2      7.5479179529880964      28.088164267359311                 5.06358
   216   1      7.5479179529880964      12.002428230531523      3.0874199999999998
   217   1      7.5479179529880964      12.002428230531523      7.1900700000000004
   218   1      7.7952357716749034      22.148715108703264                 10.3278
   219   1      7.7952357716749034      22.148715108703264                14.43045
   220   2      7.7952469348010158      6.0630510120215382                12.30396
   221   3       7.795390815093139      26.108381370518966      5.2105499999999996
   222   2       7.795390815093139      26.108381370518966      2.9496899999999999
   223   2       7.795390815093139      26.108381370518966      7.0523499999999997
   224   2      7.7953908150931399       10.02264533369118                 5.06358
   225   2      8.0427073934326003       24.12847815998607                12.30396
   226   3      8.0427185565587127      8.0428140633043466                12.45093
   227   2      8.0427185565587127      8.0428140633043466                10.19007
   228   2      8.0427185565587127      8.0428140633043466      14.292730000000001
   229   2      8.0428636771981825      24.128598473678625                 5.06358
   230   1      8.0428636771981825      8.0428624368508359      3.0874199999999998
   231   1      8.0428636771981825      8.0428624368508359      7.1900700000000004
   232   1       8.290176534495604      26.108261056826414                 10.3278
   233   1       8.290176534495604      26.108261056826414                14.43045
   234   2      8.2901876976217181      10.022596960144691                12.30396
   235   3      8.2903365393032242      22.148815576838281      5.2105499999999996
   236   2      8.2903365393032242      22.148815576838281      2.9496899999999999
   237   2      8.2903365393032242      22.148815576838281      7.0523499999999997
   238   2       8.290336539303226      6.0630795400104933                 5.06358
   239   3      8.5376593193794168      12.002360011427498                12.45093
   240   2      8.5376593193794168      12.002360011427498                10.19007
   241   2      8.5376593193794168      12.002360011427498      14.292730000000001
   242   2      8.5376704825055274      28.088167988401349                12.30396
   243   2      8.5378094014082677      20.169032679997937                 5.06358
   244   1      8.5378094014082677      4.0832966431701507      3.0874199999999998
   245   1      8.5378094014082677      4.0832966431701507      7.1900700000000004
   246   2      8.7851284604424205      13.982142908267841                12.30396
   247   1      8.7851396235685346      30.067950885241689                 10.3278
   248   1      8.7851396235685346      30.067950885241689                14.43045
   249   3      8.7852822635133112      18.189249783157592      5.2105499999999996
   250   2      8.7852822635133112      18.189249783157592      2.9496899999999999
   251   2      8.7852822635133112      18.189249783157592      7.0523499999999997
   252   2      8.7852822635133112      2.1035137463298077                 5.06358
   253   3      9.0326000822001173       15.96190595955065                12.45093
   254   2      9.0326000822001173       15.96190595955065                10.19007
   255   2      9.0326000822001173       15.96190595955065      14.292730000000001
   256   2      9.0326112453262297      32.047713936524502                12.30396
   257   2      9.0327551256183529      16.209466886317252                 5.06358
   258   1      9.0327538852710081     0.12374077226823207      3.0874199999999998
   259   1      9.0327538852710081     0.12374077226823207      7.1900700000000004
   260   2      9.2800692232631228      17.941688856390993                12.30396
   261   1      9.2800791460418903      1.8560346824880356                 10.3278
   262   1      9.2800791460418903      1.8560346824880356                14.43045
   263   3      9.2802279877233964      14.229683989476909      5.2105499999999996
   264   2      9.2802279877233964      14.229683989476909      2.9496899999999999
   265   2      9.2802279877233964      14.229683989476909      7.0523499999999997
   266   2      9.2802279877233982      30.315420026304697                 5.06358
   267   3      9.5275408450208197      19.921451907673802                12.45093
   268   2      9.5275408450208197      19.921451907673802                10.19007
   269   2      9.5275408450208197      19.921451907673802      14.292730000000001
   270   2      9.5275507677995872       3.835797733770844                12.30396
   271   2      9.5277008498284399      12.249901092636565                 5.06358
   272   1      9.5277008498284417      28.335637129464352      3.0874199999999998
   273   1      9.5277008498284417      28.335637129464352      7.1900700000000004
   274   2      9.7750199088625926      21.901236044861491                12.30396
   275   1      9.7750298316413602      5.8155818709585327                 10.3278
   276   1      9.7750298316413602      5.8155818709585327                14.43045
   277   3      9.7751737119334816      10.270118195796224      5.2105499999999996
   278   2      9.7751737119334816      10.270118195796224      2.9496899999999999
   279   2      9.7751737119334816      10.270118195796224      7.0523499999999997
   280   2      9.7751737119334834      26.355854232624008                 5.06358
   281   3       10.02249153062029      23.880999096144301                12.45093
   282   2       10.02249153062029      23.880999096144301                10.19007
   283   2       10.02249153062029      23.880999096144301      14.292730000000001
   284   2      10.022501453399057      7.7953449222413411                12.30396
   285   2      10.022646574038525      8.2903352989558794                 5.06358
   286   1      10.022646574038527      24.376071335783667      3.0874199999999998
   287   1      10.022646574038527      24.376071335783667      7.1900700000000004
   288   2      10.269960671683293      25.860781992984645                12.30396
   289   1      10.269970594462061      9.7751278190816855                 10.3278
   290   1      10.269970594462061      9.7751278190816855                14.43045
   291   3      10.270119436143569      6.3105524021155368      5.2105499999999996
   292   2      10.270119436143569      6.3105524021155368      2.9496899999999999
   293   2      10.270119436143569      6.3105524021155368      7.0523499999999997
   294   2      10.270119436143569      22.396288438943323                 5.06358
   295   2      10.517442216219758      11.754890870364495                12.30396
   296   3      10.517453379345872      27.840698847338341                12.45093
   297   2      10.517453379345872      27.840698847338341                10.19007
   298   2      10.517453379345872      27.840698847338341      14.292730000000001
   299   2       10.51759229824861      4.3307695052751942                 5.06358
   300   1      10.517592298248612      20.416505542102982      3.0874199999999998
   301   1      10.517592298248612      20.416505542102982      7.1900700000000004
   302   1      10.764911357282765      13.734673767204837                 10.3278
   303   1      10.764911357282765      13.734673767204837                14.43045
   304   2      10.764922520408877      29.820481744178686                12.30396
   305   3      10.765065160353654      2.3509866084348507      5.2105499999999996
   306   2      10.765065160353654      2.3509866084348507      2.9496899999999999
   307   2      10.765065160353654      2.3509866084348507      7.0523499999999997
   308   2      10.765065160353656      18.436722645262638                 5.06358
   309   2      11.012382979040462      15.714436818487645                12.30396
   310   3      11.012394142166572      31.800244795461492                12.45093
   311   2      11.012394142166572      31.800244795461492                10.19007
   312   2      11.012394142166572      31.800244795461492      14.292730000000001
   313   2      11.012536782111351     0.37121363437327487                 5.06358
   314   1      11.012538022458697      16.456939748422293      3.0874199999999998
   315   1      11.012538022458697      16.456939748422293      7.1900700000000004
   316   1      11.259852120103465      17.694219715327986                 10.3278
   317   1      11.259852120103465      17.694219715327986                14.43045
   318   2      11.259862042882233      1.6085655414250304                12.30396
   319   3      11.260010884563741      30.562892888409738      5.2105499999999996
   320   2      11.260010884563741      30.562892888409738      2.9496899999999999
   321   2      11.260010884563741      30.562892888409738      7.0523499999999997
   322   2      11.260010884563741      14.477156851581952                 5.06358
   323   2      11.507323741861162      19.673982766610798                12.30396
   324   3       11.50733366463993       3.588328592707839                12.45093
   325   2       11.50733366463993       3.588328592707839                10.19007
   326   2       11.50733366463993       3.588328592707839      14.292730000000001
   327   2      11.507483746668784      28.583109991569394                 5.06358
   328   1      11.507483746668784      12.497373954741608      3.0874199999999998
   329   1      11.507483746668784      12.497373954741608      7.1900700000000004
   330   1      11.754802805702935      21.653766903798484                 10.3278
   331   1      11.754802805702935      21.653766903798484                14.43045
   332   2      11.754802805702935      5.5681114895481816                12.30396
   333   3      11.754956608773826       26.60332709472905      5.2105499999999996
   334   2      11.754956608773826       26.60332709472905      2.9496899999999999
   335   2      11.754956608773826       26.60332709472905      7.0523499999999997
   336   2      11.754956608773826      10.517591057901265                 5.06358
   337   2      12.002274427460632      23.633529955081297                12.30396
   338   3        12.0022843502394      7.5478757811783366                12.45093
   339   2        12.0022843502394      7.5478757811783366                10.19007
   340   2        12.0022843502394      7.5478757811783366      14.292730000000001
   341   2      12.002429470878869      24.623544197888712                 5.06358
   342   1      12.002429470878869      8.5378081610609229      3.0874199999999998
   343   1      12.002429470878869      8.5378081610609229      7.1900700000000004
   344   1      12.249743568523639      25.613312851921638                 10.3278
   345   1      12.249743568523639      25.613312851921638                14.43045
   346   2      12.249753491302403        9.52765867801868                12.30396
   347   3      12.249902332983911      22.643761301048368      5.2105499999999996
   348   2      12.249902332983911      22.643761301048368      2.9496899999999999
   349   2      12.249902332983911      22.643761301048368      7.0523499999999997
   350   2      12.249902332983913      6.5580252642205794                 5.06358
   351   3      12.497225113060102      11.507421729301489                12.45093
   352   2      12.497225113060102      11.507421729301489                10.19007
   353   2      12.497225113060102      11.507421729301489      14.292730000000001
   354   2      12.497236276186214      27.593229706275338                12.30396
   355   2      12.497375195088955      20.663978404208024                 5.06358
   356   1      12.497375195088955      4.5782423673802368      3.0874199999999998
   357   1      12.497375195088955      4.5782423673802368      7.1900700000000004
   358   2      12.744694254123107      13.487204626141832                12.30396