(written by ASE)

1022 atoms
3 atom types

0.0       34.09381393377118  xlo xhi
0.0       34.09381393377118  ylo yhi
0.0      61.480760591600003  zlo zhi

Masses

     1       137.3269999646734 # Ba
     2      15.998999995884349 # O
     3      47.866999987686484 # Ti

Atoms # atomic

     1   2      0.1048325851321024      13.898125930138731                12.30396
     2   1     0.10545407362371512       30.94378910412971                 10.3278
     3   1     0.10545407362371512       30.94378910412971                14.43045
     4   2     0.11676258926580399      3.1525044701392493                 5.06358
     5   3     0.11676258926580443      20.199415302759334      5.2105499999999996
     6   2     0.11676258926580443      20.199415302759334      2.9496899999999999
     7   2     0.11676258926580443      20.199415302759334      7.0523499999999997
     8   2     0.33811782931195783      7.5943365586140166                12.30396
     9   3     0.33873931780357008      24.639999732604995                12.45093
    10   2     0.33873931780357008      24.639999732604995                10.19007
    11   2     0.33873931780357008      24.639999732604995      14.292730000000001
    12   1     0.35028191574005063      26.504437117564024      3.0874199999999998
    13   1     0.35028191574005063      26.504437117564024      7.1900700000000004
    14   2     0.35028191574005191      9.4575262849439401                 5.06358
    15   2     0.57140775513770115      1.2893065509290231                12.30396
    16   1     0.57202924362931273      18.334969724920001                 10.3278
    17   1     0.57202924362931273      18.334969724920001                14.43045
    18   2      0.5838012422142993       15.76254809974863                 5.06358
    19   3     0.58380124221429841      32.809458932368713      5.2105499999999996
    20   2     0.58380124221429841      32.809458932368713      2.9496899999999999
    21   2     0.58380124221429841      32.809458932368713      7.0523499999999997
    22   3     0.80531799904358381      12.031189716687059                12.45093
    23   2     0.80531799904358381      12.031189716687059                10.19007
    24   2     0.80531799904358381      12.031189716687059      14.292730000000001
    25   2     0.80594065794666903      29.075602891225984                12.30396
    26   1     0.81732056868854719      5.0206590819332311      3.0874199999999998
    27   1     0.81732056868854719      5.0206590819332311      7.1900700000000004
    28   2     0.81732056868854808      22.067569914553317                 5.06358
    29   1      1.0386079248693274      5.7261597090020677                 10.3278
    30   1      1.0386079248693274      5.7261597090020677                14.43045
    31   2      1.0392294133609392      22.771822882993046                12.30396
    32   2      1.0508398951627942      28.372591729358007                 5.06358
    33   3      1.0508398951627946      11.325680896737921      5.2105499999999996
    34   2      1.0508398951627946      11.325680896737921      2.9496899999999999
    35   2      1.0508398951627946      11.325680896737921      7.0523499999999997
    36   2      1.2725193391866827      16.466792875308052                12.30396
    37   3      1.2731408276782945      33.512456049299026                12.45093
    38   2      1.2731408276782945      33.512456049299026                10.19007
    39   2      1.2731408276782945      33.512456049299026      14.292730000000001
    40   1       1.284359221637043      17.630702711542611      3.0874199999999998
    41   1       1.284359221637043      17.630702711542611      7.1900700000000004
    42   2       1.284349858345267     0.58379539015693949                 5.06358
    43   2      1.5058080946009538      10.163012867075112                12.30396
    44   1      1.5064307535040371      27.207426041614031                 10.3278
    45   1      1.5064307535040371      27.207426041614031                14.43045
    46   2      1.5178785481112906      6.8888136937272133                 5.06358
    47   3      1.5178785481112917        23.9357245263473      5.2105499999999996
    48   2      1.5178785481112917        23.9357245263473      2.9496899999999999
    49   2      1.5178785481112917        23.9357245263473      7.0523499999999997
    50   2      1.7390980204266968       3.857982859390118                12.30396
    51   3      1.7397195089183084      20.903646033381094                12.45093
    52   2      1.7397195089183084      20.903646033381094                10.19007
    53   2      1.7397195089183084      20.903646033381094      14.292730000000001
    54   1      1.7513978745855379       30.24074634115199      3.0874199999999998
    55   1      1.7513978745855379       30.24074634115199      7.1900700000000004
    56   2      1.7513978745855383      13.193835508531905                 5.06358
    57   1      1.9730094347440519      14.598616025696101                 10.3278
    58   1      1.9730094347440519      14.598616025696101                14.43045
    59   2      1.9736309232356628      31.644279199687077                12.30396
    60   2      1.9849172010597866      19.498857323336594                 5.06358
    61   3      1.9849078377680105      2.4519500019509217      5.2105499999999996
    62   2      1.9849078377680105      2.4519500019509217      2.9496899999999999
    63   2      1.9849078377680105      2.4519500019509217      7.0523499999999997
    64   3      2.2062946789239075      8.2948266541713878                12.45093
    65   2      2.2062946789239075      8.2948266541713878                10.19007
    66   2      2.2062946789239075      8.2948266541713878      14.292730000000001
    67   2      2.2069161674155184      25.340489828162365                12.30396
    68   1      2.2184365275340343      8.7569683055211964      3.0874199999999998
    69   1      2.2184365275340343      8.7569683055211964      7.1900700000000004
    70   2      2.2184365275340339       25.80387913814128                 5.06358
    71   1      2.4395846047496508      1.9897966464863925                 10.3278
    72   1      2.4395846047496508      1.9897966464863925                14.43045
    73   2      2.4402060932412621      19.035459820477371                12.30396
    74   2        2.45195585400828      32.108900952945973                 5.06358
    75   3      2.4519558540082813      15.061990120325886      5.2105499999999996
    76   2      2.4519558540082813      15.061990120325886      2.9496899999999999
    77   2      2.4519558540082813      15.061990120325886      7.0523499999999997
    78   2      2.6734948486555337       12.73167981224443                12.30396
    79   3      2.6741175075586177       29.77609298678335                12.45093
    80   2      2.6741175075586177       29.77609298678335                10.19007
    81   2      2.6741175075586177       29.77609298678335      14.292730000000001
    82   1      2.6854751804825305      21.367011935130577      3.0874199999999998
    83   1      2.6854751804825305      21.367011935130577      7.1900700000000004
    84   2      2.6854658171907535      4.3201046137449035                 5.06358
    85   2      2.9067847744812769      6.4266498045594362                12.30396
    86   1      2.9074062629728896      23.472312978550413                 10.3278
    87   1      2.9074062629728896      23.472312978550413                14.43045
    88   2      2.9189945069567771      10.625122917315178                 5.06358
    89   3      2.9189945069567775      27.672033749935263      5.2105499999999996
    90   2      2.9189945069567775      27.672033749935263      2.9496899999999999
    91   2      2.9189945069567775      27.672033749935263      7.0523499999999997
    92   3      3.1406961887986311      17.167282970865418                12.45093
    93   2      3.1406961887986311      17.167282970865418                10.19007
    94   2      3.1406961887986311      17.167282970865418      14.292730000000001
    95   2       3.141321188524659     0.11913384290799736                12.30396
    96   1      3.1525138334310254      33.977055564739956      3.0874199999999998
    97   1      3.1525138334310254      33.977055564739956      7.1900700000000004
    98   2       3.152513833431025      16.930144732119867                 5.06358
    99   1      3.3802033403634337      10.846080217460866                 10.3278
   100   1      3.3802033403634337      10.846080217460866                14.43045
   101   2      3.3808283400894603      27.894230515829761                12.30396
   102   2      3.3860331599052742       23.23516654692456                 5.06358
   103   3      3.3860237966134972      6.1882592255388857      5.2105499999999996
   104   2      3.3860237966134972      6.1882592255388857      2.9496899999999999
   105   2      3.3860237966134972      6.1882592255388857      7.0523499999999997
   106   3      3.6072748700386463      4.5584729549474883                12.45093
   107   2      3.6072748700386463      4.5584729549474883                10.19007
   108   2      3.6072748700386463      4.5584729549474883      14.292730000000001
   109   2      3.6078963585302586      21.604136128938467                12.30396
   110   1      3.6195524863795208      12.493277529109161      3.0874199999999998
   111   1      3.6195524863795208      12.493277529109161      7.1900700000000004
   112   2      3.6195524863795212      29.540188361729246                 5.06358
   113   2      3.8411862843560014      15.299106121253471                12.30396
   114   1      3.8418077728476141      32.344769295244447                 10.3278
   115   1      3.8418077728476141      32.344769295244447                14.43045
   116   2       3.853062449561993      1.7513920225281783                 5.06358
   117   3      3.8530718128537687       18.79829934391385      5.2105499999999996
   118   2      3.8530718128537687       18.79829934391385      2.9496899999999999
   119   2      3.8530718128537687       18.79829934391385      7.0523499999999997
   120   2      4.0744715285358568      8.9953167497287563                12.30396
   121   3        4.07509301702747      26.040979923719732                12.45093
   122   2        4.07509301702747      26.040979923719732                10.19007
   123   2        4.07509301702747      26.040979923719732      14.292730000000001
   124   1      4.0865911393280161       25.10332115871854      3.0874199999999998
   125   1      4.0865911393280161       25.10332115871854      7.1900700000000004
   126   2      4.0865817760362404      8.0564138373328706                 5.06358
   127   2      4.3077614543616001      2.6902867420437624                12.30396
   128   1      4.3083829428532114      19.735949916034741                 10.3278
   129   1      4.3083829428532114      19.735949916034741                14.43045
   130   2       4.320110465802264      14.361432140903142                 5.06358
   131   3      4.3201104658022631      31.408342973523226      5.2105499999999996
   132   2      4.3201104658022631      31.408342973523226      2.9496899999999999
   133   2      4.3201104658022631      31.408342973523226      7.0523499999999997
   134   3      4.5416810615592587      13.432166396567386                12.45093
   135   2      4.5416810615592587      13.432166396567386                10.19007
   136   2      4.5416810615592587      13.432166396567386      14.292730000000001
   137   2      4.5422978684049822      30.476592445632498                12.30396
   138   1      4.5536204289847362      3.6195466343221603      3.0874199999999998
   139   1      4.5536204289847362      3.6195466343221603      7.1900700000000004
   140   2      4.5536297922765119      20.666453955707834                 5.06358
   141   1      4.7749616240932262      7.1271399001168065                 10.3278
   142   1      4.7749616240932262      7.1271399001168065                14.43045
   143   2      4.7755831125848376      24.172803074107787                12.30396
   144   2      4.7871491187507598      26.971475770512523                 5.06358
   145   3      4.7871397554589832       9.924568449126852      5.2105499999999996
   146   2      4.7871397554589832       9.924568449126852      2.9496899999999999
   147   2      4.7871397554589832       9.924568449126852      7.0523499999999997
   148   2      5.0088730384105808      17.867773066422789                12.30396
   149   3      5.0094980381366083     0.81962393846536696                12.45093
   150   2      5.0094980381366083     0.81962393846536696                10.19007
   151   2      5.0094980381366083     0.81962393846536696      14.292730000000001
   152   1      5.0206684452250077      16.229586752697124      3.0874199999999998
   153   1      5.0206684452250077      16.229586752697124      7.1900700000000004
   154   2      5.0206684452250085      33.276497585317216                 5.06358
   155   2      5.2421711571166281      11.563989546955435                12.30396
   156   1      5.2427844527279364      28.608406232728772                 10.3278
   157   1      5.2427844527279364      28.608406232728772                14.43045
   158   2      5.2541784084074798      5.4877012461161421                 5.06358
   159   3      5.2541877716992555      22.534608567501817      5.2105499999999996
   160   2      5.2541877716992555      22.534608567501817      2.9496899999999999
   161   2      5.2541877716992555      22.534608567501817      7.0523499999999997
   162   2      5.4754517196505956      5.2589630505048577                12.30396
   163   3      5.4760825714339836      22.304622713261416                12.45093
   164   2      5.4760825714339836      22.304622713261416                10.19007
   165   2      5.4760825714339836      22.304622713261416      14.292730000000001
   166   1      5.4877070981735034      28.839630382306506      3.0874199999999998
   167   1      5.4877070981735034      28.839630382306506      7.1900700000000004
   168   2      5.4876977348817269      11.792723060920835                 5.06358
   169   1      5.7093631339679503       15.99959621681084                 10.3278
   170   1      5.7093631339679503       15.99959621681084                14.43045
   171   2      5.7099846224595643      33.045259390801817                12.30396
   172   2      5.7212264246477513      18.097741364491107                 5.06358
   173   3      5.7212170613559747       1.050834043105435      5.2105499999999996
   174   2      5.7212170613559747       1.050834043105435      2.9496899999999999
   175   2      5.7212170613559747       1.050834043105435      7.0523499999999997
   176   3      5.9426577414395823      9.6958033340517105                12.45093
   177   2      5.9426577414395823      9.6958033340517105                10.19007
   178   2      5.9426577414395823      9.6958033340517105      14.292730000000001
   179   2      5.9432792299311936      26.741466508042688                12.30396
   180   1      5.9547363878302235      7.3558558579101261      3.0874199999999998
   181   1      5.9547363878302235      7.3558558579101261      7.1900700000000004
   182   2      5.9547457511219974      24.402763179295796                 5.06358
   183   1      6.1759476672653246      3.3907733263667157                 10.3278
   184   1      6.1759476672653246      3.3907733263667157                14.43045
   185   2      6.1765726669913521      20.436445863649467                12.30396
   186   2      6.1882650775962453      30.707784994100486                 5.06358
   187   3      6.1882557143044696      13.660877672714816      5.2105499999999996
   188   2      6.1882557143044696      13.660877672714816      2.9496899999999999
   189   2      6.1882557143044696      13.660877672714816      7.0523499999999997
   190   2      6.4098579111712084      14.132656492124754                12.30396
   191   3      6.4104840813087067      31.177079029955451                12.45093
   192   2      6.4104840813087067      31.177079029955451                10.19007
   193   2      6.4104840813087067      31.177079029955451      14.292730000000001
   194   1       6.421784404070495       19.96589597628509      3.0874199999999998
   195   1       6.421784404070495       19.96589597628509      7.1900700000000004
   196   2      6.4217750407787175      2.9189886548994171                 5.06358
   197   2      6.6431478369969517      7.8276264844397589                12.30396
   198   1      6.6437693254885621      24.873289658430735                 10.3278
   199   1      6.6437693254885621      24.873289658430735                14.43045
   200   2      6.6552943672529663      9.2240104697041083                 5.06358
   201   3      6.6553037305447411      26.270917791089779      5.2105499999999996
   202   2      6.6553037305447411      26.270917791089779      2.9496899999999999
   203   2      6.6553037305447411      26.270917791089779      7.0523499999999997
   204   3      6.8770592513143063      18.568259650745741                12.45093
   205   2      6.8770592513143063      18.568259650745741                10.19007
   206   2      6.8770592513143063      18.568259650745741      14.292730000000001
   207   2      6.8776748877485581      1.5201140340227361                12.30396
   208   1      6.8888230570189908      32.575939605894469      3.0874199999999998
   209   1      6.8888230570189908      32.575939605894469      7.1900700000000004
   210   2      6.8888136937272133      15.529032284508798                 5.06358
   211   1      7.1103480067285778      12.264479642512805                 10.3278
   212   1      7.1103480067285778      12.264479642512805                14.43045
   213   2      7.1109706656316609      29.308892817051724                12.30396
   214   2      7.1223423834932387      21.834050588079073                 5.06358
   215   3      7.1223330202014612      4.7871432666933993      5.2105499999999996
   216   2      7.1223330202014612      4.7871432666933993      2.9496899999999999
   217   2      7.1223330202014612      4.7871432666933993      7.0523499999999997
   218   3      7.3436379325543211       5.959449634827811                12.45093
   219   2      7.3436379325543211       5.959449634827811                10.19007
   220   2      7.3436379325543211       5.959449634827811      14.292730000000001
   221   2      7.3442594210459324      23.005112808818787                12.30396
   222   1        7.35585234667571      11.092165081498091      3.0874199999999998
   223   1        7.35585234667571      11.092165081498091      7.1900700000000004
   224   2      7.3558617099674848      28.139072402883762                 5.06358
   225   2      7.5775493468716757      16.700082801133792                12.30396
   226   1      7.5781708353632888      33.745745975124777                 10.3278
   227   1      7.5781708353632888      33.745745975124777                14.43045
   228   2       7.589371673149957     0.35027606368269176                 5.06358
   229   3       7.589371673149957      17.397186896302777      5.2105499999999996
   230   2       7.589371673149957      17.397186896302777      2.9496899999999999
   231   2       7.589371673149957      17.397186896302777      7.0523499999999997
   232   2      7.8108345910515311      10.396293429609079                12.30396
   233   3      7.8114560795431434      27.441956603600055                12.45093
   234   2      7.8114560795431434      27.441956603600055                10.19007
   235   2      7.8114560795431434      27.441956603600055      14.292730000000001
   236   1      7.8229003629159806      23.702205199873053      3.0874199999999998
   237   1      7.8229003629159806      23.702205199873053      7.1900700000000004
   238   2      7.8228909996242049      6.6552978784873833                 5.06358
   239   2      8.0441280281116914      4.0912727852158612                12.30396
   240   1      8.0447495166033018      21.136935959206838                 10.3278
   241   1      8.0447495166033018      21.136935959206838                14.43045
   242   2      8.0564103260984528      12.960319693292073                 5.06358
   243   3      8.0564196893902267      30.007227014677742      5.2105499999999996
   244   2      8.0564196893902267      30.007227014677742      2.9496899999999999
   245   2      8.0564196893902267      30.007227014677742      7.0523499999999997
   246   3      8.2780347607831573      14.833146587682124                12.45093
   247   2      8.2780347607831573      14.833146587682124                10.19007
   248   2      8.2780347607831573      14.833146587682124      14.292730000000001
   249   2      8.2786609309206582      31.877569125512824                12.30396
   250   1      8.2899296525727006      2.2184306754766734      3.0874199999999998
   251   1      8.2899296525727006      2.2184306754766734      7.1900700000000004
   252   2      8.2899296525727006       19.26534150809676                 5.06358
   253   1      8.5113246866089014      8.5281165799971284                 10.3278
   254   1      8.5113246866089014      8.5281165799971284                14.43045
   255   2      8.5119461751005137      25.573779753988106                12.30396
   256   2      8.5234583423387242      25.570359811667036                 5.06358
   257   3      8.5234489790469485      8.5234524902813646      5.2105499999999996
   258   2      8.5234489790469485      8.5234524902813646      2.9496899999999999
   259   2      8.5234489790469485      8.5234524902813646      7.0523499999999997
   260   3      8.7446134420231729      2.2243365717641903                12.45093
   261   2      8.7446134420231729      2.2243365717641903                10.19007
   262   2      8.7446134420231729      2.2243365717641903      14.292730000000001
   263   2      8.7452361009262543      19.268749746303111                12.30396
   264   1      8.7569683055211964      14.828474305086054      3.0874199999999998
   265   1      8.7569683055211964      14.828474305086054      7.1900700000000004
   266   2      8.7569776688129721      31.875381626471729                 5.06358
   267   2      8.9785248563405275      12.964969738070172                12.30396
   268   1      8.9791475152436089      30.009382912609095                 10.3278
   269   1      8.9791475152436089      30.009382912609095                14.43045
   270   2      8.9904876319954443      4.0865852872706556                 5.06358
   271   3      8.9904876319954443      21.133496119890744      5.2105499999999996
   272   2      8.9904876319954443      21.133496119890744      2.9496899999999999
   273   2      8.9904876319954443      21.133496119890744      7.0523499999999997
   274   2      9.2118147821662717      6.6599397303851804                12.30396
   275   3      9.2124362706578822      23.705602904376157                12.45093
   276   2      9.2124362706578822      23.705602904376157                10.19007
   277   2      9.2124362706578822      23.705602904376157      14.292730000000001
   278   1      9.2240163217614679      27.438514423461019      3.0874199999999998
   279   1      9.2240163217614679      27.438514423461019      7.1900700000000004
   280   2      9.2240069584696922      10.391607102075348                 5.06358
   281   2      9.4451000263461253     0.35615035886046537                12.30396
   282   1      9.4457261964836245      17.400572896691163                 10.3278
   283   1      9.4457261964836245      17.400572896691163                14.43045
   284   2      9.4575262849439401      16.696628916880034                 5.06358
   285   3       9.457535648235714      33.743536238265705      5.2105499999999996
   286   2       9.457535648235714      33.743536238265705      2.9496899999999999
   287   2       9.457535648235714      33.743536238265705      7.0523499999999997
   288   3      9.6790149518978961      11.096792888458223                12.45093
   289   2      9.6790149518978961      11.096792888458223                10.19007
   290   2      9.6790149518978961      11.096792888458223      14.292730000000001
   291   2      9.6796364403895083      28.142456062449202                12.30396
   292   1       9.691045611418188      5.9547398990646396      3.0874199999999998
   293   1       9.691045611418188      5.9547398990646396      7.1900700000000004
   294   2      9.6910456114181862      23.001650731684723                 5.06358
   295   1      9.9123048777236402      4.7917628807732306                 10.3278
   296   1      9.9123048777236402      4.7917628807732306                14.43045
   297   2      9.9129263662152525      21.837426054764205                12.30396
   298   2      9.9245743011842098      29.306669035254998                 5.06358
   299   3      9.9245649378924341      12.259761713869329      5.2105499999999996
   300   2      9.9245649378924341      12.259761713869329      2.9496899999999999
   301   2      9.9245649378924341      12.259761713869329      7.0523499999999997
   302   3      10.145595973960855      32.581782299962498                12.45093
   303   2      10.145595973960855      32.581782299962498                10.19007
   304   2      10.145595973960855      32.581782299962498      14.292730000000001
   305   2      10.146211610395106      15.533636683239495                12.30396
   306   1      10.158084264366684      18.564783528674017      3.0874199999999998
   307   1      10.158084264366684      18.564783528674017      7.1900700000000004
   308   2      10.158084264366684      1.5178726960539299                 5.06358
   309   2       10.37950153622085      9.2286066755545004                12.30396
   310   1      10.380123024712463      26.274269849545476                 10.3278
   311   1      10.380123024712463      26.274269849545476                14.43045
   312   2       10.39160359084093       7.822894510858621                 5.06358
   313   3       10.39160359084093      24.869805343478706      5.2105499999999996
   314   2       10.39160359084093      24.869805343478706      2.9496899999999999
   315   2       10.39160359084093      24.869805343478706      7.0523499999999997
   316   2      10.612799654926897       2.924823156087144                12.30396
   317   3      10.613412950538205      19.969239841860482                12.45093
   318   2      10.613412950538205      19.969239841860482                10.19007
   319   2      10.613412950538205      19.969239841860482      14.292730000000001
   320   1      10.625132280606955      31.174823647048985      3.0874199999999998
   321   1      10.625132280606955      31.174823647048985      7.1900700000000004
   322   2      10.625122917315178       14.12791632566331                 5.06358
   323   2      10.848570853073198      30.707387054200019                12.30396
   324   1      10.849187659918922      13.657991438024959                 10.3278
   325   1      10.849187659918922      13.657991438024959                14.43045
   326   2      10.858642243789427         20.432938140468                 5.06358
   327   3      10.858642243789427      3.3860273078479119      5.2105499999999996
   328   2      10.858642243789427      3.3860273078479119      2.9496899999999999
   329   2      10.858642243789427      3.3860273078479119      7.0523499999999997
   330   3      11.079991631778221      7.3604298259425507                12.45093
   331   2      11.079991631778221      7.3604298259425507                10.19007
   332   2      11.079991631778221      7.3604298259425507      14.292730000000001
   333   2      11.080613120269833      24.406092999933524                12.30396
   334   1      11.092161570263674      9.6910491226526041      3.0874199999999998
   335   1      11.092161570263674      9.6910491226526041      7.1900700000000004
   336   2      11.092161570263674      26.737959955272689                 5.06358
   337   1      11.313289750484266      1.0566463064751948                 10.3278
   338   1      11.313289750484266      1.0566463064751948                14.43045
   339   2      11.313903046095575      18.101062992248533                12.30396
   340   2      11.325690260029697      33.042978258842965                 5.06358
   341   3      11.325680896737921      15.996070937457292      5.2105499999999996
   342   2      11.325680896737921      15.996070937457292      2.9496899999999999
   343   2      11.325680896737921      15.996070937457292      7.0523499999999997
   344   3      11.546576165075596        28.8454286007386                12.45093
   345   2      11.546576165075596        28.8454286007386                10.19007
   346   2      11.546576165075596        28.8454286007386      14.292730000000001
   347   2      11.547201164801622      11.797279472781179                12.30396
   348   1      11.559200223212169       22.30109275226198      3.0874199999999998
   349   1      11.559200223212169       22.30109275226198      7.1900700000000004
   350   2      11.559200223212171       5.254181919641896                 5.06358
   351   2      11.780481727335589      5.4922529763305992                12.30396
   352   1      11.781103215827201      22.537916150321578                 10.3278
   353   1      11.781103215827201      22.537916150321578                14.43045
   354   2      11.792719549686417      11.559203734446585                 5.06358
   355   3      11.792719549686415      28.606114567066669      5.2105499999999996
   356   2      11.792719549686415      28.606114567066669      2.9496899999999999
   357   2      11.792719549686415      28.606114567066669      7.0523499999999997