(written by ASE)

910 atoms
3 atom types

0.0      32.171464778118533  xlo xhi
0.0      32.171464778118533  ylo yhi
0.0      61.480760591600003  zlo zhi

Masses

     1       137.3269999646734 # Ba
     2      15.998999995884349 # O
     3      47.866999987686484 # Ti

Atoms # atomic

     1   3      0.1223168535151478      10.269722524992881                12.45093
     2   2      0.1223168535151478      10.269722524992881                10.19007
     3   2      0.1223168535151478      10.269722524992881      14.292730000000001
     4   2     0.12238011122978663      26.355448639041899                12.30396
     5   3     0.12373457053150282      5.8156054375581041      5.2105499999999996
     6   2     0.12373457053150282      5.8156054375581041      2.9496899999999999
     7   2     0.12373457053150282      5.8156054375581041      7.0523499999999997
     8   2       0.123734570531503      21.901341474385887                 5.06358
     9   2     0.36979963839895791      14.724230321841613                12.30396
    10   1     0.36987157854502034      30.809961397280013                 10.3278
    11   1     0.36987157854502034      30.809961397280013                14.43045
    12   2     0.37120743263654538      1.3610939196673331                 5.06358
    13   1     0.37120743263654643      17.446829956495115      3.0874199999999998
    14   1     0.37120743263654643      17.446829956495115      7.1900700000000004
    15   3     0.61729110571418977       19.17874308007973                12.45093
    16   2     0.61729110571418977       19.17874308007973                10.19007
    17   2     0.61729110571418977       19.17874308007973      14.292730000000001
    18   2     0.61735808447086737       3.093010764293985                12.30396
    19   3     0.61868029474158959      29.078054475432129      5.2105499999999996
    20   2     0.61868029474158959      29.078054475432129      2.9496899999999999
    21   2     0.61868029474158959      29.078054475432129      7.0523499999999997
    22   2     0.61868029474158814      12.992318438604345                 5.06358
    23   2     0.86478753441880329      23.633247155886426                12.30396
    24   1     0.86485451317548201      7.5475148401006802                 10.3278
    25   1     0.86485451317548201      7.5475148401006802                14.43045
    26   2     0.86615315684663219       24.62354295754136                 5.06358
    27   1     0.86615315684663063      8.5378069207135745      3.0874199999999998
    28   1     0.86615315684663063      8.5378069207135745      7.1900700000000004
    29   2      1.1122070615879738      12.002028838686142                12.30396
    30   3      1.1122790017340369       28.08775991412454                12.45093
    31   2      1.1122790017340369       28.08775991412454                10.19007
    32   2      1.1122790017340369       28.08775991412454      14.292730000000001
    33   3      1.1136260189516747      20.169031439650585      5.2105499999999996
    34   2      1.1136260189516747      20.169031439650585      2.9496899999999999
    35   2      1.1136260189516747      20.169031439650585      7.0523499999999997
    36   2      1.1136260189516738      4.0832954028228041                 5.06358
    37   1      1.3597034902925891       16.45653291449284                 10.3278
    38   1      1.3597034902925891       16.45653291449284                14.43045
    39   2      1.3597704690492662     0.37080059870709275                12.30396
    40   2      1.3610988810567173      15.714519921759818                 5.06358
    41   1      1.3610988810567153      31.800255958587599      3.0874199999999998
    42   1      1.3610988810567153      31.800255958587599      7.1900700000000004
    43   2      1.6071949576078199      20.911045672730957                12.30396
    44   3      1.6072619363644975      4.8253133569452089                12.45093
    45   2      1.6072619363644975      4.8253133569452089                10.19007
    46   2      1.6072619363644975      4.8253133569452089      14.292730000000001
    47   3       1.608571743161759      11.260008403869046      5.2105499999999996
    48   2       1.608571743161759      11.260008403869046      2.9496899999999999
    49   2       1.608571743161759      11.260008403869046      7.0523499999999997
    50   2      1.6085717431617597       27.34574444069683                 5.06358
    51   1      1.8546864249230501      25.365558430969074                 10.3278
    52   1      1.8546864249230501      25.365558430969074                14.43045
    53   2      1.8547534036797284      9.2798261151833259                12.30396
    54   2      1.8560446052668018      6.8054968859782745                 5.06358
    55   1      1.8560446052668038      22.891232922806058      3.0874199999999998
    56   1      1.8560446052668038      22.891232922806058      7.1900700000000004
    57   3      2.1021109134816029      13.734331431337367                12.45093
    58   2      2.1021109134816029      13.734331431337367                10.19007
    59   2      2.1021109134816029      13.734331431337367      14.292730000000001
    60   2      2.1021778922382839      29.820071189207187                12.30396
    61   3      2.1035174673718453      2.3509853680875046      5.2105499999999996
    62   2      2.1035174673718453      2.3509853680875046      2.9496899999999999
    63   2      2.1035174673718453      2.3509853680875046      7.0523499999999997
    64   2      2.1035174673718458      18.436721404915289                 5.06358
    65   2      2.3496023807968349      18.188844189575484                12.30396
    66   1      2.3496693595535132      2.1031118737897385                 10.3278
    67   1      2.3496693595535132      2.1031118737897385                14.43045
    68   2       2.350990329476887      30.067945923852299                 5.06358
    69   1      2.3509903294768888      13.982209887024517      3.0874199999999998
    70   1      2.3509903294768888      13.982209887024517      7.1900700000000004
    71   3      2.5970938481120651      22.643356947813601                12.45093
    72   2      2.5970938481120651      22.643356947813601                10.19007
    73   2      2.5970938481120651      22.643356947813601      14.292730000000001
    74   2      2.5971608268687443      6.5576246320278555                12.30396
    75   3      2.5984631915819314      25.613434405961531      5.2105499999999996
    76   2      2.5984631915819314      25.613434405961531      2.9496899999999999
    77   2      2.5984631915819314      25.613434405961531      7.0523499999999997
    78   2      2.5984631915819305      9.5276983691337467                 5.06358
    79   2      2.8445815943852595       27.09785606223091                12.30396
    80   1      2.8446485731419373      11.012123746445168                 10.3278
    81   1      2.8446485731419373      11.012123746445168                14.43045
    82   2      2.8459360536869758      21.158922888070759                 5.06358
    83   1      2.8459360536869731      5.0731868512429754      3.0874199999999998
    84   1      2.8459360536869731      5.0731868512429754      7.1900700000000004
    85   2       3.092009803985849      15.466642706420012                12.30396
    86   3      3.0920730617004915      31.552368820469031                12.45093
    87   2      3.0920730617004915      31.552368820469031                10.19007
    88   2      3.0920730617004915      31.552368820469031      14.292730000000001
    89   3      3.0934089157920162       16.70441137017999      5.2105499999999996
    90   2      3.0934089157920162       16.70441137017999      2.9496899999999999
    91   2      3.0934089157920162       16.70441137017999      7.0523499999999997
    92   2      3.0934039544026328     0.61868401578362608                 5.06358
    93   1      3.3394975502590425      19.921141820837324                 10.3278
    94   1      3.3394975502590425      19.921141820837324                14.43045
    95   2      3.3395645290157221      3.8354095050515791                12.30396
    96   2      3.3408817778970596      12.249899852289218                 5.06358
    97   1       3.340881777897057         28.335635889117      3.0874199999999998
    98   1       3.340881777897057         28.335635889117      7.1900700000000004
    99   2      3.5869890175742745      24.375654579075444                12.30396
   100   3      3.5870559963309532      8.2899222632896947                12.45093
   101   2      3.5870559963309532      8.2899222632896947                10.19007
   102   2      3.5870559963309532      8.2899222632896947      14.292730000000001
   103   3      3.5883546400021018      7.7953883343984458      5.2105499999999996
   104   2      3.5883546400021018      7.7953883343984458      2.9496899999999999
   105   2      3.5883546400021018      7.7953883343984458      7.0523499999999997
   106   2      3.5883546400021031      23.881124371226228                 5.06358
   107   1      3.8344804848895082      28.830167337313558                 10.3278
   108   1      3.8344804848895082      28.830167337313558                14.43045
   109   2      3.8345474636461825      12.744435021527812                12.30396
   110   2      3.8358275021071444      3.3408768165076754                 5.06358
   111   1      3.8358275021071466       19.42661285333546      3.0874199999999998
   112   1      3.8358275021071466       19.42661285333546      7.1900700000000004
   113   3      4.0819049734480588      17.198940337681854                12.45093
   114   2      4.0819049734480588      17.198940337681854                10.19007
   115   2      4.0819049734480588      17.198940337681854      14.292730000000001
   116   2      4.0819719522047375      1.1132080218961085                12.30396
   117   3      4.0833003642121897       31.05783737227247      5.2105499999999996
   118   2      4.0833003642121897       31.05783737227247      2.9496899999999999
   119   2      4.0833003642121897       31.05783737227247      7.0523499999999997
   120   2      4.0833003642121879      14.972101335444687                 5.06358
   121   2      4.3293964407632908      21.653453095919971                12.30396
   122   1      4.3294634195199686      5.5677207801342252                 10.3278
   123   1      4.3294634195199686      5.5677207801342252                14.43045
   124   2      4.3307732263172287      26.603325854381701                 5.06358
   125   1      4.3307732263172314      10.517589817553917      3.0874199999999998
   126   1      4.3307732263172314      10.517589817553917      7.1900700000000004
   127   3      4.5768879080785192      26.107965854158088                12.45093
   128   2      4.5768879080785192      26.107965854158088                10.19007
   129   2      4.5768879080785192      26.107965854158088      14.292730000000001
   130   2      4.5769548868351988      10.022233538372342                12.30396
   131   3      4.5782460884222749      22.148814336490929      5.2105499999999996
   132   2      4.5782460884222749      22.148814336490929      2.9496899999999999
   133   2      4.5782460884222749      22.148814336490929      7.0523499999999997
   134   2      4.5782460884222731      6.0630782996631467                 5.06358
   135   2      4.8243843367831367      30.562469929964784                12.30396
   136   1      4.8244513155398154      14.476737614179036                 10.3278
   137   1      4.8244513155398154      14.476737614179036                14.43045
   138   2      4.8257189505273175      17.694302818600161                 5.06358
   139   1      4.8257139891379319       1.608575464203797      3.0874199999999998
   140   1      4.8257139891379319       1.608575464203797      7.1900700000000004
   141   2      5.0718038639523062      18.931251612764498                12.30396
   142   3       5.071870842708984      2.8455192969787535                12.45093
   143   2       5.071870842708984      2.8455192969787535                10.19007
   144   2       5.071870842708984      2.8455192969787535      14.292730000000001
   145   3      5.0731918126323592      13.239791300709388      5.2105499999999996
   146   2      5.0731918126323592      13.239791300709388      2.9496899999999999
   147   2      5.0731918126323592      13.239791300709388      7.0523499999999997
   148   2      5.0731918126323592      29.325527337537171                 5.06358
   149   1      5.3193002926569193      23.385755688571194                 10.3278
   150   1      5.3193002926569193      23.385755688571194                14.43045
   151   2      5.3193672714135989        7.30002337278545                12.30396
   152   2      5.3206646747374027       8.785279782818618                 5.06358
   153   1         5.3206646747374      24.871015819646402      3.0874199999999998
   154   1         5.3206646747374      24.871015819646402      7.1900700000000004
   155   2      5.5667917599721495      27.840268446809311                12.30396
   156   3        5.56685873872883      11.754536131023565                12.45093
   157   2        5.56685873872883      11.754536131023565                10.19007
   158   2        5.56685873872883      11.754536131023565      14.292730000000001
   159   3      5.5681375368424444      4.3307682649278467      5.2105499999999996
   160   2      5.5681375368424444      4.3307682649278467      2.9496899999999999
   161   2      5.5681375368424444      4.3307682649278467      7.0523499999999997
   162   2      5.5681375368424453       20.41650430175563                 5.06358
   163   1      5.8142782658979995     0.12331781382328288                 10.3278
   164   1      5.8142782658979995     0.12331781382328288                14.43045
   165   2      5.8143415236126392      16.209043927872298                12.30396
   166   2      5.8156103989474888       32.04772882069264                 5.06358
   167   1      5.8156103989474888       15.96199278386486      3.0874199999999998
   168   1      5.8156103989474888       15.96199278386486      7.1900700000000004
   169   3      6.0617077158459347      20.663554205415725                12.45093
   170   2      6.0617077158459347      20.663554205415725                10.19007
   171   2      6.0617077158459347      20.663554205415725      14.292730000000001
   172   2      6.0617746946026134      4.5778218896299778                12.30396
   173   3      6.0630832610525314      27.593217302801872      5.2105499999999996
   174   2      6.0630832610525314      27.593217302801872      2.9496899999999999
   175   2      6.0630832610525314      27.593217302801872      7.0523499999999997
   176   2      6.0630832610525305      11.507481265974089                 5.06358
   177   2      6.3091905007297457      25.118062002264455                12.30396
   178   1      6.3092574794864253       9.032329686478711                 10.3278
   179   1      6.3092574794864253       9.032329686478711                14.43045
   180   2      6.3105561231575722        23.1387057849111                 5.06358
   181   1       6.310556123157574       7.052969748083318      3.0874199999999998
   182   1       6.310556123157574       7.052969748083318      7.1900700000000004
   183   3      6.5566819680449777      29.572574760502572                12.45093
   184   2      6.5566819680449777      29.572574760502572                10.19007
   185   2      6.5566819680449777      29.572574760502572      14.292730000000001
   186   2      6.5567489468016564      13.486842444716828                12.30396
   187   3      6.5580289852626166      18.684194267020331      5.2105499999999996
   188   2      6.5580289852626166      18.684194267020331      2.9496899999999999
   189   2      6.5580289852626166      18.684194267020331      7.0523499999999997
   190   2      6.5580240238732319      2.5984669126239686                 5.06358
   191   2      6.8041734353602079      1.8556154450851232                12.30396
   192   1      6.8042453755062704      17.941346520523521                 10.3278
   193   1      6.8042453755062704      17.941346520523521                14.43045
   194   2      6.8055018473676601      14.229682749129561                 5.06358
   195   1      6.8055018473676583      30.315418785957345      3.0874199999999998
   196   1      6.8055018473676583      30.315418785957345      7.1900700000000004
   197   2      7.0515979239187612      22.395860519108986                12.30396
   198   3      7.0516649026754381      6.3101282033232398                12.45093
   199   2      7.0516649026754381      6.3101282033232398                10.19007
   200   2      7.0516649026754381      6.3101282033232398      14.292730000000001
   201   3      7.0529747094727018      9.7751712312387884      5.2105499999999996
   202   2      7.0529747094727018      9.7751712312387884      2.9496899999999999
   203   2      7.0529747094727018      9.7751712312387884      7.0523499999999997
   204   2      7.0529747094727027      25.860907268066573                 5.06358
   205   1      7.2990943526233778      26.850364594915678                 10.3278
   206   1      7.2990943526233778      26.850364594915678                14.43045
   207   2      7.2991613313800539      10.764632279129936                12.30396
   208   2      7.3004475715777453       5.320659713348018                 5.06358
   209   1      7.3004475715777426        21.4063957501758      3.0874199999999998
   210   1      7.3004475715777426        21.4063957501758      7.1900700000000004
   211   2      7.5465858199386062      31.304877353153799                12.30396
   212   3      7.5466527986952849      15.219145037368053                12.45093
   213   2      7.5466527986952849      15.219145037368053                10.19007
   214   2      7.5466527986952849      15.219145037368053      14.292730000000001
   215   3      7.5479154722934032     0.86615687788866846      5.2105499999999996
   216   2      7.5479154722934032     0.86615687788866846      2.9496899999999999
   217   2      7.5479154722934032     0.86615687788866846      7.0523499999999997
   218   2      7.5479204336827879      16.951884232285032                 5.06358
   219   2      7.7940115488445061      19.673789272424834                12.30396
   220   1      7.7940723258644544      3.5879267201677689                 10.3278
   221   1      7.7940723258644544      3.5879267201677689                14.43045
   222   2      7.7953932957878305      28.583108751222046                 5.06358
   223   1      7.7953932957878314       12.49737271439426      3.0874199999999998
   224   1      7.7953932957878314       12.49737271439426      7.1900700000000004
   225   3      8.0415017758123906      24.128163111760209                12.45093
   226   2      8.0415017758123906      24.128163111760209                10.19007
   227   2      8.0415017758123906      24.128163111760209      14.292730000000001
   228   2      8.0415687545690702      8.0424307959744645                12.30396
   229   3       8.042866157892874       24.12859723333127      5.2105499999999996
   230   2       8.042866157892874       24.12859723333127      2.9496899999999999
   231   2       8.042866157892874       24.12859723333127      7.0523499999999997
   232   2      8.0428661578928722      8.0428611965034893                 5.06358
   233   2      8.2889932431276225      28.582675869998326                12.30396
   234   1      8.2890602218843004      12.496943554212582                 10.3278
   235   1      8.2890602218843004      12.496943554212582                14.43045
   236   2      8.2903390199979139      19.674085715440501                 5.06358
   237   1      8.2903340586085328      3.5883583610441399      3.0874199999999998
   238   1      8.2903340586085328      3.5883583610441399      7.1900700000000004
   239   3      8.5364847104428545     0.86571655458087737                12.45093
   240   2      8.5364847104428545     0.86571655458087737                10.19007
   241   2      8.5364847104428545     0.86571655458087737      14.292730000000001
   242   2      8.5365516891995306      16.951456312450699                12.30396
   243   3      8.5378118821029592      15.219574197549731      5.2105499999999996
   244   2      8.5378118821029592      15.219574197549731      2.9496899999999999
   245   2      8.5378118821029592      15.219574197549731      7.0523499999999997
   246   2      8.5378118821029574      31.305310234377515                 5.06358
   247   1      8.7839017569173325      21.406095586118095                 10.3278
   248   1      8.7839017569173325      21.406095586118095                14.43045
   249   2      8.7839761777580847      5.3202293128189933                12.30396
   250   2      8.7852847442080026      10.765062679658961                 5.06358
   251   1      8.7852847442080026      26.850798716486743      3.0874199999999998
   252   1      8.7852847442080026      26.850798716486743      7.1900700000000004
   253   2      9.0314006663166388      25.860474386842853                12.30396
   254   3      9.0314676450733167      9.7747420710571102                12.45093
   255   2      9.0314676450733167      9.7747420710571102                10.19007
   256   2      9.0314676450733167      9.7747420710571102      14.292730000000001
   257   3      9.0327576063130444      6.3105511617681893      5.2105499999999996
   258   2      9.0327576063130444      6.3105511617681893      2.9496899999999999
   259   2      9.0327576063130444      6.3105511617681893      7.0523499999999997
   260   2      9.0327576063130461      22.396287198595971                 5.06358
   261   1      9.2788834512004463      30.314982183691587                 10.3278
   262   1      9.2788834512004463      30.314982183691587                14.43045
   263   2      9.2789504299571277      14.229249867905843                12.30396
   264   2       9.280225507028705      1.8560483263088399                 5.06358
   265   1      9.2802304684180861      17.941775680705202      3.0874199999999998
   266   1      9.2802304684180861      17.941775680705202      7.1900700000000004
   267   3      9.5263141414957282      18.683885420531201                12.45093
   268   2      9.5263141414957282      18.683885420531201                10.19007
   269   2      9.5263141414957282      18.683885420531201      14.292730000000001
   270   2       9.526383600947101      2.5980278296635229                12.30396
   271   3      9.5277033305231296      29.573000199642216      5.2105499999999996
   272   2      9.5277033305231296      29.573000199642216      2.9496899999999999
   273   2      9.5277033305231296      29.573000199642216      7.0523499999999997
   274   2      9.5277033305231313      13.487264162814432                 5.06358
   275   2      9.7738056088109619      23.138398178769322                12.30396
   276   1      9.7738663858309103      7.0525356265122552                 10.3278
   277   1      9.7738663858309103      7.0525356265122552                14.43045
   278   2      9.7751761926281731      25.118488681751444                 5.06358
   279   1      9.7751761926281731      9.0327526449236615      3.0874199999999998
   280   1      9.7751761926281731      9.0327526449236615      7.1900700000000004
   281   3      10.021295835778847      27.592772018104696                12.45093
   282   2      10.021295835778847      27.592772018104696                10.19007
   283   2      10.021295835778847      27.592772018104696      14.292730000000001
   284   2      10.021362814535525       11.50703970231895                12.30396
   285   3      10.022649054733217      20.663977163860672      5.2105499999999996
   286   2      10.022649054733217      20.663977163860672      2.9496899999999999
   287   2      10.022649054733217      20.663977163860672      7.0523499999999997
   288   2      10.022644093343832      4.5782498094643111                 5.06358
   289   2      10.268787303094079      32.047284776342813                12.30396
   290   1      10.268854281850757      15.961552460557069                 10.3278
   291   1      10.268854281850757      15.961552460557069                14.43045
   292   2      10.270121916838256      16.209465645969903                 5.06358
   293   1      10.270116955448875     0.12373829157354042      3.0874199999999998
   294   1      10.270116955448875     0.12373829157354042      7.1900700000000004
   295   2      10.516213031999975      20.416196695613849                12.30396
   296   3      10.516278770409309      4.3303254609253639                12.45093
   297   2      10.516278770409309      4.3303254609253639                10.19007
   298   2      10.516278770409309      4.3303254609253639      14.292730000000001
   299   3      10.517594778943302      11.754954128079131      5.2105499999999996
   300   2      10.517594778943302      11.754954128079131      2.9496899999999999
   301   2      10.517594778943302      11.754954128079131      7.0523499999999997
   302   2      10.517594778943302      27.840690164906917                 5.06358
   303   1       10.76370449931521      24.870709453851969                 10.3278
   304   1       10.76370449931521      24.870709453851969                14.43045
   305   2       10.76377023772454      8.7848382191634791                12.30396
   306   2      10.765067641048345      7.3004426101883606                 5.06358
   307   1      10.765067641048345      23.386178647016145      3.0874199999999998
   308   1      10.765067641048345      23.386178647016145      7.1900700000000004
   309   2      11.011194726283096       29.32508329318734                12.30396
   310   3      11.011261705039772      13.239350977401598                12.45093
   311   2      11.011261705039772      13.239350977401598                10.19007
   312   2      11.011261705039772      13.239350977401598      14.292730000000001
   313   3      11.012535541764004      2.8459397747290112      5.2105499999999996
   314   2      11.012535541764004      2.8459397747290112      2.9496899999999999
   315   2      11.012535541764004      2.8459397747290112      7.0523499999999997
   316   2      11.012540503153389      18.931667129125373                 5.06358
   317   2      11.258620455188991      17.693995212458375                12.30396
   318   1      11.258686193598326      1.6081239777698928                 10.3278
   319   1      11.258686193598326      1.6081239777698928                14.43045
   320   2      11.260013365258429      30.562891648062386                 5.06358
   321   1      11.260013365258429      14.477155611234602      3.0874199999999998
   322   1      11.260013365258429      14.477155611234602      7.1900700000000004
   323   3      11.506111922504227      22.148507970696496                12.45093
   324   2      11.506111922504227      22.148507970696496                10.19007
   325   2      11.506111922504227      22.148507970696496      14.292730000000001
   326   2      11.506177660913556      6.0626367360080096                12.30396
   327   3      11.507486227363472      26.108380130171614      5.2105499999999996
   328   2      11.507486227363472      26.108380130171614      2.9496899999999999
   329   2      11.507486227363472      26.108380130171614      7.0523499999999997
   330   2      11.507486227363472      10.022644093343832                 5.06358
   331   2      11.753599668777419      26.603007085113806                12.30396
   332   1      11.753669128228786      10.517149494246125                 10.3278
   333   1      11.753669128228786      10.517149494246125                14.43045
   334   2      11.754959089468516      21.653868612280846                 5.06358
   335   1      11.754954128079133      5.5681412578844824      3.0874199999999998
   336   1      11.754954128079133      5.5681412578844824      7.1900700000000004
   337   3      12.001098578176723      31.057385885838567                12.45093
   338   2      12.001098578176723      31.057385885838567                10.19007
   339   2      12.001098578176723      31.057385885838567      14.292730000000001
   340   2      12.001165556933403      14.971653570052823                12.30396
   341   3      12.002431951573559      17.199357094390074      5.2105499999999996
   342   2      12.002431951573559      17.199357094390074      2.9496899999999999
   343   2      12.002431951573559      17.199357094390074      7.0523499999999997
   344   2      12.002426990184174      1.1136297399937116                 5.06358
   345   1      12.248515624651201      19.426292843720219                 10.3278
   346   1      12.248515624651201      19.426292843720219                14.43045
   347   2      12.248585084102572      3.3404352528525383                12.30396
   348   2      12.249904813678599      12.744845576499303                 5.06358
   349   1      12.249904813678601      28.830581613327087      3.0874199999999998
   350   1      12.249904813678601      28.830581613327087      7.1900700000000004
   351   2      12.496007091966431      23.880805601958333                12.30396
   352   3      12.496081512807187      7.7949393286592334                12.45093
   353   2      12.496081512807187      7.7949393286592334                10.19007
   354   2      12.496081512807187      7.7949393286592334      14.292730000000001
   355   3      12.497377675783644      8.2903340586085328      5.2105499999999996
   356   2      12.497377675783644      8.2903340586085328      2.9496899999999999
   357   2      12.497377675783644      8.2903340586085328      7.0523499999999997
   358   2      12.497377675783644      24.376070095436315                 5.06358