(written by ASE)

1452 atoms
3 atom types

0.0      48.050527278882271  xlo xhi
0.0      48.050527278882271  ylo yhi
0.0      61.480760591600003  zlo zhi

Masses

     1       137.3269999646734 # Ba
     2      15.998999995884349 # O
     3      47.866999987686484 # Ti

Atoms # atomic

     1   1    0.058271352303769355      46.639695957636782                 10.3278
     2   1    0.058271352303769355      46.639695957636782                14.43045
     3   2    0.082845340247292371      1.4083707842039717                 5.06358
     4   1    0.082845340247289928      25.433639871864571      3.0874199999999998
     5   1    0.082845340247289928      25.433639871864571      7.1900700000000004
     6   3     0.22382251639219705      43.822934458313675                12.45093
     7   2     0.22382251639219705      43.822934458313675                10.19007
     8   2     0.22382251639219705      43.822934458313675      14.292730000000001
     9   3     0.24853685119667454       28.25039555800409      5.2105499999999996
    10   2     0.24853685119667454       28.25039555800409      2.9496899999999999
    11   2     0.24853685119667454       28.25039555800409      7.0523499999999997
    12   1     0.38936620638744396      41.006166315352175                 10.3278
    13   1     0.38936620638744396      41.006166315352175                14.43045
    14   1     0.41422836214605735      31.067151244143613      3.0874199999999998
    15   1     0.41422836214605735      31.067151244143613      7.1900700000000004
    16   3     0.55491737047587519      38.189404816029068                12.45093
    17   2     0.55491737047587519      38.189404816029068                10.19007
    18   2     0.55491737047587519      38.189404816029068      14.292730000000001
    19   3     0.57991987309544257      33.883906930283125      5.2105499999999996
    20   2     0.57991987309544257      33.883906930283125      2.9496899999999999
    21   2     0.57991987309544257      33.883906930283125      7.0523499999999997
    22   1     0.72046853456430648      35.372643316705961                 10.3278
    23   1     0.72046853456430648      35.372643316705961                14.43045
    24   1     0.74561138404482186      36.700662616422647      3.0874199999999998
    25   1     0.74561138404482186      36.700662616422647      7.1900700000000004
    26   3     0.88601222455955342      32.555875173744461                12.45093
    27   2     0.88601222455955342      32.555875173744461                10.19007
    28   2     0.88601222455955342      32.555875173744461      14.292730000000001
    29   3     0.91130289499420813      39.517418302562163      5.2105499999999996
    30   2     0.91130289499420813      39.517418302562163      2.9496899999999999
    31   2     0.91130289499420813      39.517418302562163      7.0523499999999997
    32   1      1.0515633886479805      29.739113674421354                 10.3278
    33   1      1.0515633886479805      29.739113674421354                14.43045
    34   1      1.0769944059435934      42.334173988701686      3.0874199999999998
    35   1      1.0769944059435934      42.334173988701686      7.1900700000000004
    36   3        1.21711455273641      26.922352175098247                12.45093
    37   2        1.21711455273641      26.922352175098247                10.19007
    38   2        1.21711455273641      26.922352175098247      14.292730000000001
    39   3      1.2426859168929703      45.150929674841201      5.2105499999999996
    40   2      1.2426859168929703      45.150929674841201      2.9496899999999999
    41   2      1.2426859168929703      45.150929674841201      7.0523499999999997
    42   1      1.3826582427316569       24.10558403213675                 10.3278
    43   1      1.3826582427316569       24.10558403213675                14.43045
    44   2       1.383883994014298    0.080320757659738909                12.30396
    45   1      1.4083774278423613      47.967685360980717      3.0874199999999998
    46   1      1.4083774278423613      47.967685360980717      7.1900700000000004
    47   3      1.5482094068200865       21.28882253281364                12.45093
    48   2      1.5482094068200865       21.28882253281364                10.19007
    49   2      1.5482094068200865       21.28882253281364      14.292730000000001
    50   3      1.5740689387917435      2.7339028717990397      5.2105499999999996
    51   2      1.5740689387917435      2.7339028717990397      2.9496899999999999
    52   2      1.5740689387917435      2.7339028717990397      7.0523499999999997
    53   1      1.7137464531769404      18.472061863945331                 10.3278
    54   1      1.7137464531769404      18.472061863945331                14.43045
    55   1      1.7397604497411263      5.5506585579385579      3.0874199999999998
    56   1      1.7397604497411263      5.5506585579385579      7.1900700000000004
    57   3      1.8792976172653735      15.655300364622223                12.45093
    58   2      1.8792976172653735      15.655300364622223                10.19007
    59   2      1.8792976172653735      15.655300364622223      14.292730000000001
    60   3        1.90545196069051       8.367414244078077      5.2105499999999996
    61   2        1.90545196069051       8.367414244078077      2.9496899999999999
    62   2        1.90545196069051       8.367414244078077      7.0523499999999997
    63   1      2.0448487813538025      12.838538865299116                 10.3278
    64   1      2.0448487813538025      12.838538865299116                14.43045
    65   1      2.0711434716398944      11.184169930217594      3.0874199999999998
    66   1      2.0711434716398944      11.184169930217594      7.1900700000000004
    67   3       2.210392471349047      10.021770722337617                12.45093
    68   2       2.210392471349047      10.021770722337617                10.19007
    69   2       2.210392471349047      10.021770722337617      14.292730000000001
    70   3      2.2368349825892762      14.000925616357113      5.2105499999999996
    71   2      2.2368349825892762      14.000925616357113      2.9496899999999999
    72   2      2.2368349825892762      14.000925616357113      7.0523499999999997
    73   1      2.3783943075479619       7.205006731650113                 10.3278
    74   1      2.3783943075479619       7.205006731650113                14.43045
    75   1      2.4025264935386601      16.817681302496631      3.0874199999999998
    76   1      2.4025264935386601      16.817681302496631      7.1900700000000004
    77   3       2.543945471636393      4.3882452323270051                12.45093
    78   2       2.543945471636393      4.3882452323270051                10.19007
    79   2       2.543945471636393      4.3882452323270051      14.292730000000001
    80   3      2.5682180044880432      19.634436988636153      5.2105499999999996
    81   2      2.5682180044880432      19.634436988636153      2.9496899999999999
    82   2      2.5682180044880432      19.634436988636153      7.0523499999999997
    83   1       2.709489161631637      1.5714770893655086                 10.3278
    84   1       2.709489161631637      1.5714770893655086                14.43045
    85   1      2.7339095154374253      22.451192674775669      3.0874199999999998
    86   1      2.7339095154374253      22.451192674775669      7.1900700000000004
    87   3      2.8750394952652663      46.805239647632021                12.45093
    88   2      2.8750394952652663      46.805239647632021                10.19007
    89   2      2.8750394952652663      46.805239647632021      14.292730000000001
    90   3      2.8996010263868111      25.267948360915188      5.2105499999999996
    91   2      2.8996010263868111      25.267948360915188      2.9496899999999999
    92   2      2.8996010263868111      25.267948360915188      7.0523499999999997
    93   1      3.0405840157153095      43.988485622402102                 10.3278
    94   1      3.0405840157153095      43.988485622402102                14.43045
    95   1      3.0652925373361937      28.084704047054707      3.0874199999999998
    96   1      3.0652925373361937      28.084704047054707      7.1900700000000004
    97   3      3.2061277057105526      41.171717479440602                12.45093
    98   2      3.2061277057105526      41.171717479440602                10.19007
    99   2      3.2061277057105526      41.171717479440602      14.292730000000001
   100   3      3.2309840482855767      30.901459733194226      5.2105499999999996
   101   2      3.2309840482855767      30.901459733194226      2.9496899999999999
   102   2      3.2309840482855767      30.901459733194226      7.0523499999999997
   103   1      3.3716788697989841      38.354955980117495                 10.3278
   104   1      3.3716788697989841      38.354955980117495                14.43045
   105   1      3.3966755592349558      33.718215419333745      3.0874199999999998
   106   1      3.3966755592349558      33.718215419333745      7.1900700000000004
   107   3      3.5372300338874152      35.538194480794388                12.45093
   108   2      3.5372300338874152      35.538194480794388                10.19007
   109   2      3.5372300338874152      35.538194480794388      14.292730000000001
   110   3      3.5623670701843446      36.534971105473261      5.2105499999999996
   111   2      3.5623670701843446      36.534971105473261      2.9496899999999999
   112   2      3.5623670701843446      36.534971105473261      7.0523499999999997
   113   1      3.7027737238826561      32.721426337832888                 10.3278
   114   1      3.7027737238826561      32.721426337832888                14.43045
   115   1      3.7280585811337277      39.351726791612784      3.0874199999999998
   116   1      3.7280585811337277      39.351726791612784      7.1900700000000004
   117   3      3.8683248879710912      29.904664838509785                12.45093
   118   2      3.8683248879710912      29.904664838509785                10.19007
   119   2      3.8683248879710912      29.904664838509785      14.292730000000001
   120   3      3.8937500920831067      42.168482477752299      5.2105499999999996
   121   2      3.8937500920831067      42.168482477752299      2.9496899999999999
   122   2      3.8937500920831067      42.168482477752299      7.0523499999999997
   123   1      4.0338760520595205      27.087903339186674                 10.3278
   124   1      4.0338760520595205      27.087903339186674                14.43045
   125   1      4.0594416030324956      44.985238163891822      3.0874199999999998
   126   1      4.0594416030324956      44.985238163891822      7.1900700000000004
   127   3      4.1994197420547641      24.271135196225178                12.45093
   128   2      4.1994197420547641      24.271135196225178                10.19007
   129   2      4.1994197420547641      24.271135196225178      14.292730000000001
   130   3      4.2251331139818724      47.801993850031337      5.2105499999999996
   131   2      4.2251331139818724      47.801993850031337      2.9496899999999999
   132   2      4.2251331139818724      47.801993850031337      7.0523499999999997
   133   1      4.3649709061431956      21.454373696902071                 10.3278
   134   1      4.3649709061431956      21.454373696902071                14.43045
   135   1      4.3908179812928738      2.5682188349428428      3.0874199999999998
   136   1      4.3908179812928738      2.5682188349428428      7.1900700000000004
   137   3      4.5305145961384392      18.637605553940574                12.45093
   138   2      4.5305145961384392      18.637605553940574                10.19007
   139   2      4.5305145961384392      18.637605553940574      14.292730000000001
   140   3      4.5565161358806447      5.3849670469891748      5.2105499999999996
   141   2      4.5565161358806447      5.3849670469891748      2.9496899999999999
   142   2      4.5565161358806447      5.3849670469891748      7.0523499999999997
   143   1      4.6960657602268689      15.820844054617467                 10.3278
   144   1      4.6960657602268689      15.820844054617467                14.43045
   145   1      4.7222076468300296      8.2017227331286939      3.0874199999999998
   146   1      4.7222076468300296      8.2017227331286939      7.1900700000000004
   147   3      4.8616169243153005      13.004082555294357                12.45093
   148   2      4.8616169243153005      13.004082555294357                10.19007
   149   2      4.8616169243153005      13.004082555294357      14.292730000000001
   150   3      4.8878991577794118      11.018478419268211      5.2105499999999996
   151   2      4.8878991577794118      11.018478419268211      2.9496899999999999
   152   2      4.8878991577794118      11.018478419268211      7.0523499999999997
   153   1      5.0296046427826395      10.187319395061653                 10.3278
   154   1      5.0296046427826395      10.187319395061653                14.43045
   155   1      5.0535906687287957       13.83523410540773      3.0874199999999998
   156   1      5.0535906687287957       13.83523410540773      7.1900700000000004
   157   3      5.1951558068710701      7.3705578957385454                12.45093
   158   2      5.1951558068710701      7.3705578957385454                10.19007
   159   2      5.1951558068710701      7.3705578957385454      14.292730000000001
   160   3      5.2192821796781788      16.651989791547251      5.2105499999999996
   161   2      5.2192821796781788      16.651989791547251      2.9496899999999999
   162   2      5.2192821796781788      16.651989791547251      7.0523499999999997
   163   1      5.3607069709595017      4.5537963964154358                 10.3278
   164   1      5.3607069709595017      4.5537963964154358                14.43045
   165   1      5.3849736906275609      19.468745477686767      3.0874199999999998
   166   1      5.3849736906275609      19.468745477686767      7.1900700000000004
   167   3      5.5262506609547453      1.7370282534539392                12.45093
   168   2      5.5262506609547453      1.7370282534539392                10.19007
   169   2      5.5262506609547453      1.7370282534539392      14.292730000000001
   170   3      5.5506652015769449      22.285501163826286      5.2105499999999996
   171   2      5.5506652015769449      22.285501163826286      2.9496899999999999
   172   2      5.5506652015769449      22.285501163826286      7.0523499999999997
   173   1       5.691800994588375      46.970790811720455                 10.3278
   174   1       5.691800994588375      46.970790811720455                14.43045
   175   1      5.7163567125263288      25.102256849965805      3.0874199999999998
   176   1      5.7163567125263288      25.102256849965805      7.1900700000000004
   177   3      5.8573521586768029      44.154029312397341                12.45093
   178   2      5.8573521586768029      44.154029312397341                10.19007
   179   2      5.8573521586768029      44.154029312397341      14.292730000000001
   180   3      5.8820482234757128      27.919012536105324      5.2105499999999996
   181   2      5.8820482234757128      27.919012536105324      2.9496899999999999
   182   2      5.8820482234757128      27.919012536105324      7.0523499999999997
   183   1      6.0228958486720492      41.337261169435848                 10.3278
   184   1      6.0228958486720492      41.337261169435848                14.43045
   185   1      6.0477397344250923      30.735768222244843      3.0874199999999998
   186   1      6.0477397344250923      30.735768222244843      7.1900700000000004
   187   3      6.1884470127604816      38.520499670112741                12.45093
   188   2      6.1884470127604816      38.520499670112741                10.19007
   189   2      6.1884470127604816      38.520499670112741      14.292730000000001
   190   3      6.2134312453744789      33.552523908384359      5.2105499999999996
   191   2      6.2134312453744789      33.552523908384359      2.9496899999999999
   192   2      6.2134312453744789      33.552523908384359      7.0523499999999997
   193   1      6.3539981768489096      35.703738170789634                 10.3278
   194   1      6.3539981768489096      35.703738170789634                14.43045
   195   1      6.3791227563238619      36.369279594523881      3.0874199999999998
   196   1      6.3791227563238619      36.369279594523881      7.1900700000000004
   197   3      6.5195418668441532      32.886970027828134                12.45093
   198   2      6.5195418668441532      32.886970027828134                10.19007
   199   2      6.5195418668441532      32.886970027828134      14.292730000000001
   200   3      6.5448142672732432      39.186035280663397      5.2105499999999996
   201   2      6.5448142672732432      39.186035280663397      2.9496899999999999
   202   2      6.5448142672732432      39.186035280663397      7.0523499999999997
   203   1      6.6850930309325873      30.070208528505031                 10.3278
   204   1      6.6850930309325873      30.070208528505031                14.43045
   205   1      6.7105057782226298       42.00279096680292      3.0874199999999998
   206   1      6.7105057782226298       42.00279096680292      7.1900700000000004
   207   3      6.8506300772894422      27.253447859636719                12.45093
   208   2      6.8506300772894422      27.253447859636719                10.19007
   209   2      6.8506300772894422      27.253447859636719      14.292730000000001
   210   3      6.8761972891720093      44.819546652942435      5.2105499999999996
   211   2      6.8761972891720093      44.819546652942435      2.9496899999999999
   212   2      6.8761972891720093      44.819546652942435      7.0523499999999997
   213   1      7.0161812413778728      24.436686360313608                 10.3278
   214   1      7.0161812413778728      24.436686360313608                14.43045
   215   1      7.0418888001213942      47.636302339081951      3.0874199999999998
   216   1      7.0418888001213942      47.636302339081951      7.1900700000000004
   217   3      7.1817324054663034      21.619924860990505                12.45093
   218   2      7.1817324054663034      21.619924860990505                10.19007
   219   2      7.1817324054663034      21.619924860990505      14.292730000000001
   220   3       7.207573667432392      2.4025273239934593      5.2105499999999996
   221   2       7.207573667432392      2.4025273239934593      2.9496899999999999
   222   2       7.207573667432392      2.4025273239934593      7.0523499999999997
   223   1      7.3472760954615461      18.803156718029005                 10.3278
   224   1      7.3472760954615461      18.803156718029005                14.43045
   225   1      7.3732651783817769      5.2192830101329779      3.0874199999999998
   226   1      7.3732651783817769      5.2192830101329779      7.1900700000000004
   227   3      7.5128272595499777      15.986395218705898                12.45093
   228   2      7.5128272595499777      15.986395218705898                10.19007
   229   2      7.5128272595499777      15.986395218705898      14.292730000000001
   230   3      7.5389633329695469      8.0360312221793091      5.2105499999999996
   231   2      7.5389633329695469      8.0360312221793091      2.9496899999999999
   232   2      7.5389633329695469      8.0360312221793091      7.0523499999999997
   233   1      7.6783734409096187      13.172077747854885                 10.3278
   234   1      7.6783734409096187      13.172077747854885                14.43045
   235   1      7.7046548439189309      10.852786908318828      3.0874199999999998
   236   1      7.7046548439189309      10.852786908318828      7.1900700000000004
   237   3      7.8439246049980476      10.355316248531777                12.45093
   238   2      7.8439246049980476      10.355316248531777                10.19007
   239   2      7.8439246049980476      10.355316248531777      14.292730000000001
   240   3      7.8703463548683139      13.669542594458347      5.2105499999999996
   241   2      7.8703463548683139      13.669542594458347      2.9496899999999999
   242   2      7.8703463548683139      13.669542594458347      7.0523499999999997
   243   1      8.0119239498325658      7.5361015857337881                 10.3278
   244   1      8.0119239498325658      7.5361015857337881                14.43045
   245   1      8.0360378658176952      16.486298280597865      3.0874199999999998
   246   1      8.0360378658176952      16.486298280597865      7.1900700000000004
   247   3      8.1774751139209982      4.7193400864106794                12.45093
   248   2      8.1774751139209982      4.7193400864106794                10.19007
   249   2      8.1774751139209982      4.7193400864106794      14.292730000000001
   250   3        8.20172937676708      19.303053966737384      5.2105499999999996
   251   2        8.20172937676708      19.303053966737384      2.9496899999999999
   252   2        8.20172937676708      19.303053966737384      7.0523499999999997
   253   1       8.343018803916241      1.9025719434491832                 10.3278
   254   1       8.343018803916241      1.9025719434491832                14.43045
   255   1      8.3674208877164649      22.119809652876903      3.0874199999999998
   256   1      8.3674208877164649      22.119809652876903      7.1900700000000004
   257   3      8.5085624939114837       47.13634197580889                12.45093
   258   2      8.5085624939114837       47.13634197580889                10.19007
   259   2      8.5085624939114837       47.13634197580889      14.292730000000001
   260   3      8.5331123986658479      24.936565339016425      5.2105499999999996
   261   2      8.5331123986658479      24.936565339016425      2.9496899999999999
   262   2      8.5331123986658479      24.936565339016425      7.0523499999999997
   263   1       8.674113657999909      44.319580476485775                 10.3278
   264   1       8.674113657999909      44.319580476485775                14.43045
   265   1      8.6988039096152274      27.753321025155941      3.0874199999999998
   266   1      8.6988039096152274      27.753321025155941      7.1900700000000004
   267   3      8.8396573479951588      41.502812333524282                12.45093
   268   2      8.8396573479951588      41.502812333524282                10.19007
   269   2      8.8396573479951588      41.502812333524282      14.292730000000001
   270   3      8.8644954205646158       30.57007671129546      5.2105499999999996
   271   2      8.8644954205646158       30.57007671129546      2.9496899999999999
   272   2      8.8644954205646158       30.57007671129546      7.0523499999999997
   273   1      9.0052085120835876      38.686050834201176                 10.3278
   274   1      9.0052085120835876      38.686050834201176                14.43045
   275   1      9.0301869315139989      33.386832397434979      3.0874199999999998
   276   1      9.0301869315139989      33.386832397434979      7.1900700000000004
   277   3      9.1707596761720218      35.869289334878061                12.45093
   278   2      9.1707596761720218      35.869289334878061                10.19007
   279   2      9.1707596761720218      35.869289334878061      14.292730000000001
   280   3      9.1958784424633766      36.203588083574495      5.2105499999999996
   281   2      9.1958784424633766      36.203588083574495      2.9496899999999999
   282   2      9.1958784424633766      36.203588083574495      7.0523499999999997
   283   1      9.3363033661672645      33.052521191916568                 10.3278
   284   1      9.3363033661672645      33.052521191916568                14.43045
   285   1      9.3615699534127632      39.020343769714017      3.0874199999999998
   286   1      9.3615699534127632      39.020343769714017      7.1900700000000004
   287   3      9.5018545302556934      30.235759692593454                12.45093
   288   2      9.5018545302556934      30.235759692593454                10.19007
   289   2      9.5018545302556934      30.235759692593454      14.292730000000001
   290   3      9.5272614643621463      41.837099455853533      5.2105499999999996
   291   2      9.5272614643621463      41.837099455853533      2.9496899999999999
   292   2      9.5272614643621463      41.837099455853533      7.0523499999999997
   293   1      9.6673982202509379      27.418991549631965                 10.3278
   294   1      9.6673982202509379      27.418991549631965                14.43045
   295   1      9.6929529753115276      44.653855141993049      3.0874199999999998
   296   1      9.6929529753115276      44.653855141993049      7.1900700000000004
   297   3      9.8329493843393685      24.602230050308854                12.45093
   298   2      9.8329493843393685      24.602230050308854                10.19007
   299   2      9.8329493843393685      24.602230050308854      14.292730000000001
   300   3      9.8586444862609106      47.470610828132571      5.2105499999999996
   301   2      9.8586444862609106      47.470610828132571      2.9496899999999999
   302   2      9.8586444862609106      47.470610828132571      7.0523499999999997
   303   1      9.9985005484277991      21.785468550985744                 10.3278
   304   1      9.9985005484277991      21.785468550985744                14.43045
   305   1      10.024329353571911      2.2368358130440766      3.0874199999999998
   306   1      10.024329353571911      2.2368358130440766      7.1900700000000004
   307   3      10.164044238423045      18.968700408024251                12.45093
   308   2      10.164044238423045      18.968700408024251                10.19007
   309   2      10.164044238423045      18.968700408024251      14.292730000000001
   310   3      10.190020864521294       5.053591499183594      5.2105499999999996
   311   2      10.190020864521294       5.053591499183594      2.9496899999999999
   312   2      10.190020864521294       5.053591499183594      7.0523499999999997
   313   1      10.329591250237479      16.154397054904813                 10.3278
   314   1      10.329591250237479      16.154397054904813                14.43045
   315   1      10.355712375470677      7.8703471853231131      3.0874199999999998
   316   1      10.355712375470677      7.8703471853231131      7.1900700000000004
   317   3      10.495134940232726      13.337628911943316                12.45093
   318   2      10.495134940232726      13.337628911943316                10.19007
   319   2      10.495134940232726      13.337628911943316      14.292730000000001
   320   3       10.52141053005845      10.687095397369445      5.2105499999999996
   321   2       10.52141053005845      10.687095397369445      2.9496899999999999
   322   2       10.52141053005845      10.687095397369445      7.0523499999999997
   323   1      10.660686104321156      10.520867412620207                 10.3278
   324   1      10.660686104321156      10.520867412620207                14.43045
   325   1      10.687102041007831      13.503851083508962      3.0874199999999998
   326   1      10.687102041007831      13.503851083508962      7.1900700000000004
   327   3      10.826229794316401      7.7040992696587098                12.45093
   328   2      10.826229794316401      7.7040992696587098                10.19007
   329   2      10.826229794316401      7.7040992696587098      14.292730000000001
   330   3      10.852793551957216      16.320606769648482      5.2105499999999996
   331   2      10.852793551957216      16.320606769648482      2.9496899999999999
   332   2      10.852793551957216      16.320606769648482      7.0523499999999997
   333   1      10.994229139150919      4.8848846068607212                 10.3278
   334   1      10.994229139150919      4.8848846068607212                14.43045
   335   1      11.018485062906599      19.137362455788001      3.0874199999999998
   336   1      11.018485062906599      19.137362455788001      7.1900700000000004
   337   3       11.15978030323935      2.0681231075376134                12.45093
   338   2       11.15978030323935      2.0681231075376134                10.19007
   339   2       11.15978030323935      2.0681231075376134      14.292730000000001
   340   3      11.184176573855982      21.954118141927523      5.2105499999999996
   341   2      11.184176573855982      21.954118141927523      2.9496899999999999
   342   2      11.184176573855982      21.954118141927523      7.0523499999999997
   343   1      11.325330636872982      47.301885665804136                 10.3278
   344   1      11.325330636872982      47.301885665804136                14.43045
   345   1      11.349868084805363      24.770873828067039      3.0874199999999998
   346   1      11.349868084805363      24.770873828067039      7.1900700000000004
   347   3      11.490881800961409      44.485124166481022                12.45093
   348   2      11.490881800961409      44.485124166481022                10.19007
   349   2      11.490881800961409      44.485124166481022      14.292730000000001
   350   3       11.51555959575475      27.587629514206558      5.2105499999999996
   351   2       11.51555959575475      27.587629514206558      2.9496899999999999
   352   2       11.51555959575475      27.587629514206558      7.0523499999999997
   353   1      11.656425490956652      41.668356023519522                 10.3278
   354   1      11.656425490956652      41.668356023519522                14.43045
   355   1      11.681251106704133      30.404385200346077      3.0874199999999998
   356   1      11.681251106704133      30.404385200346077      7.1900700000000004
   357   3      11.821970011406696      38.851601998289603                12.45093