(written by ASE)

1190 atoms
3 atom types

0.0      36.789477468726616  xlo xhi
0.0      36.789477468726616  ylo yhi
0.0      61.480760591600003  zlo zhi

Masses

     1       137.3269999646734 # Ba
     2      15.998999995884349 # O
     3      47.866999987686484 # Ti

Atoms # atomic

     1   2    0.089979499946309077      35.381158094201631                12.30396
     2   3    0.090810343599757301      16.986429288935192                12.45093
     3   2    0.090810343599757301      16.986429288935192                10.19007
     4   2    0.090810343599757301      16.986429288935192      14.292730000000001
     5   3     0.10820382770765663      1.4066497601995358      5.2105499999999996
     6   2     0.10820382770765663      1.4066497601995358      2.9496899999999999
     7   2     0.10820382770765663      1.4066497601995358      7.0523499999999997
     8   2       0.108203827707657      19.801392665945734                 5.06358
     9   2     0.30652165224547401      32.567858573802553                12.30396
    10   1     0.30734490333289483      14.174782778624698                 10.3278
    11   1     0.30734490333289483      14.174782778624698                14.43045
    12   2     0.32461256777525893      22.614706286824561                 5.06358
    13   1     0.32461256777525888      4.2199633810783661      3.0874199999999998
    14   1     0.32461256777525888      4.2199633810783661      7.1900700000000004
    15   2     0.52304970406487605      29.754560138055773                12.30396
    16   3     0.52387946306603106      11.361476750311891                12.45093
    17   2     0.52387946306603106      11.361476750311891                10.19007
    18   2     0.52387946306603106      11.361476750311891      14.292730000000001
    19   3     0.54102130784286118      7.0332770019571953      5.2105499999999996
    20   2     0.54102130784286118      7.0332770019571953      2.9496899999999999
    21   2     0.54102130784286118      7.0332770019571953      7.0523499999999997
    22   2     0.54102130784286084      25.428019907703391                 5.06358
    23   2     0.73958426379801312      26.941254109742967                12.30396
    24   1     0.74042161536519213      8.5481772299128203                 10.3278
    25   1     0.74042161536519213      8.5481772299128203                14.43045
    26   2     0.75743004791046242      28.241333528582221                 5.06358
    27   1     0.75743004791046376      9.8465906228360254      3.0874199999999998
    28   1     0.75743004791046376      9.8465906228360254      7.1900700000000004
    29   2     0.95611882353114841      24.127948081430162                12.30396
    30   3     0.95695617509832875      5.7348712016000132                12.45093
    31   2     0.95695617509832875      5.7348712016000132                10.19007
    32   2     0.95695617509832875      5.7348712016000132      14.292730000000001
    33   3     0.97383878797806611      12.659904243714857      5.2105499999999996
    34   2     0.97383878797806611      12.659904243714857      2.9496899999999999
    35   2     0.97383878797806611      12.659904243714857      7.0523499999999997
    36   2     0.97383878797806567      31.054647149461054                 5.06358
    37   2      1.1726609758303088      21.314648561031088                12.30396
    38   1       1.173490734831466      2.9215651732872066                 10.3278
    39   1       1.173490734831466      2.9215651732872066                14.43045
    40   2       1.190247528045669      33.867960770339877                 5.06358
    41   1      1.1902475280456681      15.473217864593686      3.0874199999999998
    42   1      1.1902475280456681      15.473217864593686      7.1900700000000004
    43   3      1.3883592686485557     0.10660721953811128                12.45093
    44   2      1.3883592686485557     0.10660721953811128                10.19007
    45   2      1.3883592686485557     0.10660721953811128      14.292730000000001
    46   2       1.389195535563446      18.501342532718283                12.30396
    47   3      1.4066562681132704      18.286531485472516      5.2105499999999996
    48   2      1.4066562681132704      18.286531485472516      2.9496899999999999
    49   2      1.4066562681132704      18.286531485472516      7.0523499999999997
    50   2      1.4066562681132713      36.681274391218707                 5.06358
    51   1      1.6049003362954277      34.082779410151673                 10.3278
    52   1      1.6049003362954277      34.082779410151673                14.43045
    53   2      1.6057300952965834      15.688036504405478                12.30396
    54   2      1.6230650081808728      2.7051022006051499                 5.06358
    55   1      1.6230650081808724      21.099845106351346      3.0874199999999998
    56   1      1.6230650081808724      21.099845106351346      7.1900700000000004
    57   3      1.8214348960285629      31.269473381838864                12.45093
    58   2      1.8214348960285629      31.269473381838864                10.19007
    59   2      1.8214348960285629      31.269473381838864      14.292730000000001
    60   2      1.8222657396820103       12.87640409457474                12.30396
    61   3      1.8394737482484744      23.913158727230172      5.2105499999999996
    62   2      1.8394737482484744      23.913158727230172      2.9496899999999999
    63   2      1.8394737482484744      23.913158727230172      7.0523499999999997
    64   2      1.8394737482484746      5.5184158214839796                 5.06358
    65   1      2.0379694557616999      28.456167353526059                 10.3278
    66   1      2.0379694557616999      28.456167353526059                14.43045
    67   2      2.0388002994151466      10.063098066261935                12.30396
    68   2      2.0558824883160773      8.3317294423628088                 5.06358
    69   1      2.0558824883160778      26.726472348109006      3.0874199999999998
    70   1      2.0558824883160778      26.726472348109006      7.1900700000000004
    71   3      2.2545116080608603      25.642867833126989                12.45093
    72   2      2.2545116080608603      25.642867833126989                10.19007
    73   2      2.2545116080608603      25.642867833126989      14.292730000000001
    74   2      2.2553348591482845      7.2497920379491285                12.30396
    75   3      2.2722912283836791      29.539785968987836      5.2105499999999996
    76   2      2.2722912283836791      29.539785968987836      2.9496899999999999
    77   2      2.2722912283836791      29.539785968987836      7.0523499999999997
    78   2      2.2722912283836805      11.145043063241639                 5.06358
    79   1      2.4710396598802671      22.829569397380205                 10.3278
    80   1      2.4710396598802671      22.829569397380205                14.43045
    81   2      2.4718770114474453      4.4364925175500574                12.30396
    82   2      2.4886999684512814      13.958356684120471                 5.06358
    83   1      2.4886999684512823      32.353099589866666      3.0874199999999998
    84   1      2.4886999684512823      32.353099589866666      7.1900700000000004
    85   2      2.6867444606122461      1.6215204633212039                12.30396
    86   3      2.6875742196134009      20.016263369067399                12.45093
    87   2      2.6875742196134009      20.016263369067399                10.19007
    88   2      2.6875742196134009      20.016263369067399      14.292730000000001
    89   3      2.7051087085188832      35.166413210745489      5.2105499999999996
    90   2      2.7051087085188832      35.166413210745489      2.9496899999999999
    91   2      2.7051087085188832      35.166413210745489      7.0523499999999997
    92   2       2.705108708518885      16.771670304999301                 5.06358
    93   2      2.9032790203453831      35.597700246500786                12.30396
    94   1      2.9041163719125627      17.202963848668329                 10.3278
    95   1      2.9041163719125627      17.202963848668329                14.43045
    96   2      2.9215174485864859      19.584983925878127                 5.06358
    97   1      2.9215109406727522      1.1902486126979572      3.0874199999999998
    98   1      2.9215109406727522      1.1902486126979572      7.1900700000000004
    99   2      3.1198135800785209      32.784394218187984                12.30396
   100   3      3.1206509316456996      14.389657820355522                12.45093
   101   2      3.1206509316456996      14.389657820355522                10.19007
   102   2      3.1206509316456996      14.389657820355522      14.292730000000001
   103   3      3.1379261886540886       4.003554641010763      5.2105499999999996
   104   2      3.1379261886540886       4.003554641010763      2.9496899999999999
   105   2      3.1379261886540886       4.003554641010763      7.0523499999999997
   106   2      3.1379261886540877      22.398297546756957                 5.06358
   107   2      3.3363557323776813       29.97109469778891                12.30396
   108   1      3.3371854913788375      11.578011310045028                 10.3278
   109   1      3.3371854913788375      11.578011310045028                14.43045
   110   2      3.3543349287216913      25.211611167635787                 5.06358
   111   1      3.3543349287216908      6.8168682618895931      3.0874199999999998
   112   1      3.3543349287216908      6.8168682618895931      7.1900700000000004
   113   2      3.5528902921108187      27.157788669476105                12.30396
   114   3      3.5537276436779974      8.7647117896459559                12.45093
   115   2      3.5537276436779974      8.7647117896459559                10.19007
   116   2      3.5537276436779974      8.7647117896459559      14.292730000000001
   117   3      3.5707436687892939       9.630181882768424      5.2105499999999996
   118   2      3.5707436687892939       9.630181882768424      2.9496899999999999
   119   2      3.5707436687892939       9.630181882768424      7.0523499999999997
   120   2      3.5707436687892944      28.024924788514618                 5.06358
   121   2      3.7694248518439557        24.3444826411633                12.30396
   122   1      3.7702556954974003      5.9514133538991736                 10.3278
   123   1      3.7702556954974003      5.9514133538991736                14.43045
   124   2      3.7871524088568957      30.838238409393451                 5.06358
   125   1      3.7871524088568957      12.443495503647252      3.0874199999999998
   126   1      3.7871524088568957      12.443495503647252      7.1900700000000004
   127   3       3.985130737228225      3.1364478075840547                12.45093
   128   2       3.985130737228225      3.1364478075840547                10.19007
   129   2       3.985130737228225      3.1364478075840547      14.292730000000001
   130   2      3.9859670041431161      21.531183120764226                12.30396
   131   3       4.003561148924498      15.256809124526084      5.2105499999999996
   132   2       4.003561148924498      15.256809124526084      2.9496899999999999
   133   2       4.003561148924498      15.256809124526084      7.0523499999999997
   134   2      4.0035611489244962      33.651552030272278                 5.06358
   135   1      4.2016652969613624      0.3231417792712486                 10.3278
   136   1      4.2016652969613624      0.3231417792712486                14.43045
   137   2       4.202501563876254       18.71787709245142                12.30396
   138   2      4.2199698889920993      36.464865651151108                 5.06358
   139   1      4.2199698889921002      18.070122745404912      3.0874199999999998
   140   1      4.2199698889921002      18.070122745404912      7.1900700000000004
   141   3       4.418206364608233      34.299313969884807                12.45093
   142   2       4.418206364608233      34.299313969884807                10.19007
   143   2       4.418206364608233      34.299313969884807      14.292730000000001
   144   2      4.4190296156956554      15.904578656704638                12.30396
   145   3      4.4363786290597016      20.883436366283743      5.2105499999999996
   146   2      4.4363786290597016      20.883436366283743      2.9496899999999999
   147   2      4.4363786290597016      20.883436366283743      7.0523499999999997
   148   2      4.4363721211459675      2.4887010531035707                 5.06358
   149   1      4.6347409243413704      31.486007941572002                 10.3278
   150   1      4.6347409243413704      31.486007941572002                14.43045
   151   2      4.6355641754287928      13.091272628391831                12.30396
   152   2      4.6527873691273047      5.3020070814163773                 5.06358
   153   1      4.6527873691273047      23.696749987162573      3.0874199999999998
   154   1      4.6527873691273047      23.696749987162573      7.1900700000000004
   155   3      4.8512689761607719      28.672709505825221                12.45093
   156   2      4.8512689761607719      28.672709505825221                10.19007
   157   2      4.8512689761607719      28.672709505825221      14.292730000000001
   158   2      4.8521063277279524      10.279632625995072                12.30396
   159   3      4.8691961091949079      26.510063608041403      5.2105499999999996
   160   2      4.8691961091949079      26.510063608041403      2.9496899999999999
   161   2      4.8691961091949079      26.510063608041403      7.0523499999999997
   162   2      4.8691961091949079      8.1153207022952074                 5.06358
   163   1       5.067811128459935      25.859409985426151                 10.3278
   164   1       5.067811128459935      25.859409985426151                14.43045
   165   2      5.0686408874610915      7.4663265976822668                12.30396
   166   2      5.0856048492625092      10.928634323174037                 5.06358
   167   1       5.085604849262511      29.323377228920233      3.0874199999999998
   168   1       5.085604849262511      29.323377228920233      7.1900700000000004
   169   2      5.2835159291919149      4.6513610513671475                12.30396
   170   3      5.2843456881930724      23.046103957113342                12.45093
   171   2      5.2843456881930724      23.046103957113342                10.19007
   172   2      5.2843456881930724      23.046103957113342      14.292730000000001
   173   3      5.3020135893301097      32.136690849799059      5.2105499999999996
   174   2      5.3020135893301097      32.136690849799059      2.9496899999999999
   175   2      5.3020135893301097      32.136690849799059      7.0523499999999997
   176   2      5.3020135893301124      13.741947944052868                 5.06358
   177   2      5.5000504889250523      1.8380550230543409                12.30396
   178   1      5.5008802479262098      20.232797928800537                 10.3278
   179   1      5.5008802479262098      20.232797928800537                14.43045
   180   2      5.5184223293977137      16.555261564931698                 5.06358
   181   1      5.5184223293977128      34.950004470677897      3.0874199999999998
   182   1      5.5184223293977128      34.950004470677897      7.1900700000000004
   183   2      5.7165850486581915      35.814234806233927                12.30396
   184   3      5.7174148076593454      17.419491900487731                12.45093
   185   2      5.7174148076593454      17.419491900487731                10.19007
   186   2      5.7174148076593454      17.419491900487731      14.292730000000001
   187   3      5.7348245615515818     0.97383987263035454      5.2105499999999996
   188   2      5.7348245615515818     0.97383987263035454      2.9496899999999999
   189   2      5.7348245615515818     0.97383987263035454      7.0523499999999997
   190   2       5.734831069465316      19.368575185810524                 5.06358
   191   2       5.933119608391328      33.000928777921118                12.30396
   192   1      5.9339569599585058      14.606192380088659                 10.3278
   193   1      5.9339569599585058      14.606192380088659                14.43045
   194   2      5.9512398095329182      22.181888806689358                 5.06358
   195   1      5.9512333016191841      3.7871534935091846      3.0874199999999998
   196   1      5.9512333016191841      3.7871534935091846      7.1900700000000004
   197   2      6.1496617606904884      30.187629257522048                12.30396
   198   3      6.1504915196916432      11.792886351775852                12.45093
   199   2      6.1504915196916432      11.792886351775852                10.19007
   200   2      6.1504915196916432      11.792886351775852      14.292730000000001
   201   3      6.1676485496005213      6.6004595218219917      5.2105499999999996
   202   2      6.1676485496005213      6.6004595218219917      2.9496899999999999
   203   2      6.1676485496005213      6.6004595218219917      7.0523499999999997
   204   2      6.1676485496005213      24.995202427568188                 5.06358
   205   2       6.366196320423624      27.374323229209242                12.30396
   206   1      6.3670195715110456      8.9812474340313813                 10.3278
   207   1      6.3670195715110456      8.9812474340313813                14.43045
   208   2      6.3840572896681245      27.808516048447018                 5.06358
   209   1      6.3840572896681227      9.4137731427008209      3.0874199999999998
   210   1      6.3840572896681227      9.4137731427008209      7.1900700000000004
   211   2      6.5827308801567614      24.561017200896433                12.30396
   212   3      6.5835617238102069       6.167947913632311                12.45093
   213   2      6.5835617238102069       6.167947913632311                10.19007
   214   2      6.5835617238102069       6.167947913632311      14.292730000000001
   215   3      6.6004660297357258      12.227086763579651      5.2105499999999996
   216   2      6.6004660297357258      12.227086763579651      2.9496899999999999
   217   2      6.6004660297357258      12.227086763579651      7.0523499999999997
   218   2      6.6004660297357249      30.621829669325844                 5.06358
   219   1      6.7984367655410312      3.3529823673171917                 10.3278
   220   1      6.7984367655410312      3.3529823673171917                14.43045
   221   2      6.7992589319761638      21.747718765149653                12.30396
   222   2      6.8168747698033263      33.435143290204678                 5.06358
   223   1      6.8168747698033281      15.040400384458479      3.0874199999999998
   224   1      6.8168747698033281      15.040400384458479      7.1900700000000004
   225   3      7.0149713252741686     0.53967633900438605                12.45093
   226   2      7.0149713252741686     0.53967633900438605                10.19007
   227   2      7.0149713252741686     0.53967633900438605      14.292730000000001
   228   2      7.0158010842753233      18.934419244750579                12.30396
   229   3      7.0332835098709294      17.853714005337309      5.2105499999999996
   230   2      7.0332835098709294      17.853714005337309      2.9496899999999999
   231   2      7.0332835098709294      17.853714005337309      7.0523499999999997
   232   2      7.0332835098709303      36.248456911083508                 5.06358
   233   1      7.2315058850073051      34.515856122183969                 10.3278
   234   1      7.2315058850073051      34.515856122183969                14.43045
   235   2      7.2323356440084616      16.121113216437774                12.30396
   236   2      7.2496857420247975      2.2722923130359685                 5.06358
   237   1      7.2496922499385326      20.667027626216139      3.0874199999999998
   238   1      7.2496922499385326      20.667027626216139      7.1900700000000004
   239   3      7.4480404447404425      31.702550093871164                12.45093
   240   2      7.4480404447404425      31.702550093871164                10.19007
   241   2      7.4480404447404425      31.702550093871164      14.292730000000001
   242   2       7.448870203741599      13.307807188124968                12.30396
   243   3      7.4661009900061348       23.48034124709497      5.2105499999999996
   244   2      7.4661009900061348       23.48034124709497      2.9496899999999999
   245   2      7.4661009900061348       23.48034124709497      7.0523499999999997
   246   2      7.4660944820924007       5.085605933914799                 5.06358
   247   1      7.6645750044735772      28.889244065558358                 10.3278
   248   1      7.6645750044735772      28.889244065558358                14.43045
   249   2      7.6654123560407594      10.494507667725896                12.30396
   250   2      7.6825097300737371      7.8989119622276043                 5.06358
   251   1      7.6825097300737379      26.293654867973803      3.0874199999999998
   252   1      7.6825097300737379      26.293654867973803      7.1900700000000004
   253   3      7.8811095642067146       26.07593803724555                12.45093
   254   2      7.8811095642067146       26.07593803724555                10.19007
   255   2      7.8811095642067146       26.07593803724555      14.292730000000001
   256   2      7.8819469157738968      7.6828611574154033                12.30396
   257   3      7.8989184701413384       29.10696848885263      5.2105499999999996
   258   2      7.8989184701413384       29.10696848885263      2.9496899999999999
   259   2      7.8989184701413384       29.10696848885263      7.0523499999999997
   260   2      7.8989184701413393      10.712225583106436                 5.06358
   261   1      8.0976517165058794      23.262638516846479                 10.3278
   262   1      8.0976517165058794      23.262638516846479                14.43045
   263   2      8.0984749675932992       4.869562721668621                12.30396
   264   2      8.1153272102089424      13.525539203985264                 5.06358
   265   1      8.1153272102089424       31.92028210973146      3.0874199999999998
   266   1      8.1153272102089424       31.92028210973146      7.1900700000000004
   267   2      8.3133500093241235      2.0545971753535013                12.30396
   268   3      8.3141862762390151      20.449332488533674                12.45093
   269   2      8.3141862762390151      20.449332488533674                10.19007
   270   2      8.3141862762390151      20.449332488533674      14.292730000000001
   271   3      8.3317359502765438       34.73359573061029      5.2105499999999996
   272   2      8.3317359502765438       34.73359573061029      2.9496899999999999
   273   2      8.3317359502765438       34.73359573061029      7.0523499999999997
   274   2      8.3317359502765438      16.338852824864095                 5.06358
   275   2      8.5298910769709941      36.030769365967068                12.30396
   276   1      8.5307208359721525      17.636026460220869                 10.3278
   277   1      8.5307208359721525      17.636026460220869                14.43045
   278   2      8.5481446903441451      19.152166445742925                 5.06358
   279   1      8.5481381824304119     0.75743113256275252      3.0874199999999998
   280   1      8.5481381824304119     0.75743113256275252      7.1900700000000004
   281   2      8.7464256367041333      33.217463337654259                12.30396
   282   3      8.7472564803575779      14.822734532387818                12.45093
   283   2      8.7472564803575779      14.822734532387818                10.19007
   284   2      8.7472564803575779      14.822734532387818      14.292730000000001
   285   3       8.764546922498015      3.5707447534415828      5.2105499999999996
   286   2       8.764546922498015      3.5707447534415828      2.9496899999999999
   287   2       8.764546922498015      3.5707447534415828      7.0523499999999997
   288   2      8.7645534304117501      21.965480066621755                 5.06358
   289   2      8.9629601964372707       30.40415730934145                12.30396
   290   1      8.9637910400907153      12.009428504075013                 10.3278
   291   1      8.9637910400907153      12.009428504075013                14.43045
   292   2      8.9809621704793514      24.778793687500585                 5.06358
   293   1      8.9809556625656164      6.3840583743204125      3.0874199999999998
   294   1      8.9809556625656164      6.3840583743204125      7.1900700000000004
   295   2      9.1794958408226961      27.590865381508401                12.30396
   296   3      9.1803255998238527      9.1961224757622073                12.45093
   297   2      9.1803255998238527      9.1961224757622073                10.19007
   298   2      9.1803255998238527      9.1961224757622073      14.292730000000001
   299   3      9.1973709105469528      9.1973644026332195      5.2105499999999996
   300   2      9.1973709105469528      9.1973644026332195      2.9496899999999999
   301   2      9.1973709105469528      9.1973644026332195      7.0523499999999997
   302   2      9.1973709105469528      27.592107308379415                 5.06358
   303   2      9.3960304005558317      24.777559353195596                12.30396
   304   1      9.3968677521230131      6.3844824733654475                 10.3278
   305   1      9.3968677521230131      6.3844824733654475                14.43045
   306   2      9.4137796506145559      30.405420929258241                 5.06358
   307   1      9.4137796506145559      12.010678023512048      3.0874199999999998
   308   1      9.4137796506145559      12.010678023512048      7.1900700000000004
   309   2      9.6125649602889691       21.96425332488279                12.30396
   310   3      9.6134023118561505      3.5711764450526413                12.45093
   311   2      9.6134023118561505      3.5711764450526413                10.19007
   312   2      9.6134023118561505      3.5711764450526413      14.292730000000001
   313   3      9.6301883906821573      14.823991644390878      5.2105499999999996
   314   2      9.6301883906821573      14.823991644390878      2.9496899999999999
   315   2      9.6301883906821573      14.823991644390878      7.0523499999999997
   316   2       9.630188390682159      33.218734550137071                 5.06358
   317   1      9.8282773535869747     0.75621089873752267                 10.3278
   318   1      9.8282773535869747     0.75621089873752267                14.43045
   319   2      9.8291071125881295      19.150953804483716                12.30396
   320   2      9.8465971307497568      36.032048171015902                 5.06358
   321   1      9.8465971307497604      17.637305265269706      3.0874199999999998
   322   1      9.8465971307497604      17.637305265269706      7.1900700000000004
   323   3      10.044804320754087      34.732384174003371                12.45093
   324   2      10.044804320754087      34.732384174003371                10.19007
   325   2      10.044804320754087      34.732384174003371      14.292730000000001
   326   2      10.045641672321269      16.337647776170911                12.30396
   327   3      10.063005870817364       20.45061888614854      5.2105499999999996
   328   2      10.063005870817364       20.45061888614854      2.9496899999999999
   329   2      10.063005870817364       20.45061888614854      7.0523499999999997
   330   2      10.062999362903629      2.0558835729683671                 5.06358
   331   1      10.261346473053248      31.919084653604301                 10.3278
   332   1      10.261346473053248      31.919084653604301                14.43045
   333   2      10.262176232054406      13.524341747858106                12.30396
   334   2       10.27940810297123      4.8691971938471958                 5.06358
   335   1      10.279414610884967       23.26393250702737      3.0874199999999998
   336   1      10.279414610884967       23.26393250702737      7.1900700000000004
   337   3      10.477881032786385      29.105778625291492                12.45093
   338   2      10.477881032786385      29.105778625291492                10.19007
   339   2      10.477881032786385      29.105778625291492      14.292730000000001
   340   2      10.478710791787542      10.711035719545299                12.30396
   341   3      10.495823350952566      26.077246127906196      5.2105499999999996
   342   2      10.495823350952566      26.077246127906196      2.9496899999999999
   343   2      10.495823350952566      26.077246127906196      7.0523499999999997
   344   2      10.495816843038833      7.6825108147260268                 5.06358
   345   1      10.694415592519524      26.292472596978691                 10.3278
   346   1      10.694415592519524      26.292472596978691                14.43045
   347   2      10.695246436172969      7.8977437917122515                12.30396
   348   2      10.712232091020169      10.495816843038833                 5.06358
   349   1      10.712232091020169      28.890559748785027      3.0874199999999998
   350   1      10.712232091020169      28.890559748785027      7.1900700000000004
   351   3      10.910957744818685      23.479173076579617                12.45093
   352   2      10.910957744818685      23.479173076579617                10.19007
   353   2      10.910957744818685      23.479173076579617      14.292730000000001
   354   2      10.911780995906106      5.0860972814017575                12.30396
   355   3      10.928640831087773      31.703873369663857      5.2105499999999996
   356   2      10.928640831087773      31.703873369663857      2.9496899999999999
   357   2      10.928640831087773      31.703873369663857      7.0523499999999997